                               Psi4 1.3.2 release

  ==> Input File <==

--------------------------------------------------------------------------
set basis  6-31G
molecule {
0 1
   O        0.00000        0.00000        0.49152
   C        0.00000        0.00000       -0.65516
}
energy('scf')
frequencies('scf')
--------------------------------------------------------------------------

    Molecular point group: c2v
  Charge       = 0
  Multiplicity = 1
  Basis Set: 6-31G
    Blend: 6-31G
  Basis Set: (6-31G AUX)
    Blend: CC-PVDZ-JKFIT
  @DF-RHF Final Energy:  -112.66651218589551
    Total Energy =                       -112.6665121858955132
    Molecular point group: c2v
  Basis Set: 6-31G
    Blend: 6-31G
  Basis Set: (6-31G AUX)
    Blend: CC-PVDZ-JKFIT
  @DF-RHF Final Energy:  -112.66651218589797
    Total Energy =                       -112.6665121858979717
  Basis Set: 6-31G
    Blend: 6-31G
  Basis Set: (6-31G AUX)
    Blend: CC-PVDZ-JKFIT

  -Total Gradient:
     Atom            X                  Y                   Z
    ------   -----------------  -----------------  -----------------
       1       -0.000000000000     0.000000000000     0.038809516306
       2        0.000000000000     0.000000000000    -0.038809516307

  Charge       = 0
  Multiplicity = 1
  Basis Set: 6-31G
    Blend: 6-31G
  Basis Set: (6-31G AUX)
    Blend: CC-PVDZ-JKFIT

    Orbital Energies [Eh]
    ---------------------

    Doubly Occupied:

       1A1   -20.686368     2A1   -11.402922     3A1    -1.547644
       4A1    -0.795973     1B2    -0.634521     1B1    -0.634521
       5A1    -0.552514

  @DF-RHF Final Energy:  -112.66651218589797

   => Energetics <=

    Nuclear Repulsion Energy =             22.1513465937837957
    One-Electron Energy =                -197.1267923651567742
    Two-Electron Energy =                  62.3089335854750175
    Total Energy =                       -112.6665121858979717

  Dipole Moment: [D]
     X:     0.0000      Y:     0.0000      Z:    -0.6514     Total:     0.6514

    Molecular point group: c2v
  Basis Set: 6-31G
    Blend: 6-31G
  Basis Set: (6-31G AUX)
    Blend: CC-PVDZ-JKFIT
  Basis Set: (6-31G AUX)
    Blend: CC-PVDZ-JKFIT
    Molecular point group: c2v

    Geometry (in Angstrom), charge = 0, multiplicity = 1:

       Center              X                  Y                   Z               Mass
    ------------   -----------------  -----------------  -----------------  -----------------
         O            0.000000000000     0.000000000000     0.491523556581    15.994914619570
         C            0.000000000000     0.000000000000    -0.655156443419    12.000000000000

  Basis Set: 6-31G
    Blend: 6-31G
  Basis Set: (6-31G AUX)
    Blend: CC-PVDZ-JKFIT

  Vibration                       4                   5                   6
  Freq [cm^-1]                 262.7307            262.7307           2164.0614
  Irrep                           B1                  B2                  A1
  Reduced mass [u]             13.4388             13.4388             13.4388
  Force const [mDyne/A]         0.5466              0.5466             37.0807

  IR activ [km/mol]             1.9889              1.9889             147.0367

  ==> Thermochemistry Components <==

  Entropy, S
    Electronic S            0.000 [cal/(mol K)]        0.000 [J/(mol K)]       0.00000000 [mEh/K] (multiplicity = 1)
    Translational S        35.923 [cal/(mol K)]      150.302 [J/(mol K)]       0.05724692 [mEh/K] (mol. weight = 27.9949 [u], P = 101325.00 [Pa])
    Rotational S           11.343 [cal/(mol K)]       47.458 [J/(mol K)]       0.01807582 [mEh/K] (symmetry no. = 1)
    Vibrational S           3.288 [cal/(mol K)]       13.756 [J/(mol K)]       0.00523940 [mEh/K]
  Total S                  50.554 [cal/(mol K)]      211.516 [J/(mol K)]       0.08056215 [mEh/K]
  Correction S              0.000 [cal/(mol K)]        0.000 [J/(mol K)]       0.00000000 [mEh/K]

  Constant volume heat capacity, Cv
    Electronic Cv           0.000 [cal/(mol K)]        0.000 [J/(mol K)]       0.00000000 [mEh/K]
    Translational Cv        2.981 [cal/(mol K)]       12.472 [J/(mol K)]       0.00475022 [mEh/K]
    Rotational Cv           1.987 [cal/(mol K)]        8.314 [J/(mol K)]       0.00316681 [mEh/K]
    Vibrational Cv          3.489 [cal/(mol K)]       14.596 [J/(mol K)]       0.00555934 [mEh/K]
  Total Cv                  8.457 [cal/(mol K)]       35.382 [J/(mol K)]       0.01347637 [mEh/K]
  Correction Cv             0.000 [cal/(mol K)]        0.000 [J/(mol K)]       0.00000000 [mEh/K]

  Constant pressure heat capacity, Cp
    Electronic Cp           0.000 [cal/(mol K)]        0.000 [J/(mol K)]       0.00000000 [mEh/K]
    Translational Cp        4.968 [cal/(mol K)]       20.786 [J/(mol K)]       0.00791703 [mEh/K]
    Rotational Cp           1.987 [cal/(mol K)]        8.314 [J/(mol K)]       0.00316681 [mEh/K]
    Vibrational Cp          3.489 [cal/(mol K)]       14.596 [J/(mol K)]       0.00555934 [mEh/K]
  Total Cp                 10.444 [cal/(mol K)]       43.697 [J/(mol K)]       0.01664318 [mEh/K]
  Correction Cp             0.000 [cal/(mol K)]        0.000 [J/(mol K)]       0.00000000 [mEh/K]

  ==> Thermochemistry Energy Analysis <==

  Raw electronic energy, E0
  Total E0, Electronic energy at well bottom at 0 [K]                 -112.66651219 [Eh]

  Zero-point energy, ZPE_vib = Sum_i nu_i / 2
    Electronic ZPE          0.000 [kcal/mol]        0.000 [kJ/mol]       0.00000000 [Eh]
    Translational ZPE       0.000 [kcal/mol]        0.000 [kJ/mol]       0.00000000 [Eh]
    Rotational ZPE          0.000 [kcal/mol]        0.000 [kJ/mol]       0.00000000 [Eh]
    Vibrational ZPE         3.845 [kcal/mol]       16.087 [kJ/mol]       0.00612718 [Eh]        1344.761 [cm^-1]
  Correction ZPE            3.845 [kcal/mol]       16.087 [kJ/mol]       0.00612718 [Eh]        1344.761 [cm^-1]
  Total ZPE, Electronic energy at 0 [K]                               -112.66038500 [Eh]

  Thermal Energy, E (includes ZPE)
    Electronic E            0.000 [kcal/mol]        0.000 [kJ/mol]       0.00000000 [Eh]
    Translational E         0.889 [kcal/mol]        3.718 [kJ/mol]       0.00141628 [Eh]
    Rotational E            0.592 [kcal/mol]        2.479 [kJ/mol]       0.00094418 [Eh]
    Vibrational E           4.433 [kcal/mol]       18.550 [kJ/mol]       0.00706518 [Eh]
  Correction E              5.915 [kcal/mol]       24.747 [kJ/mol]       0.00942564 [Eh]
  Total E, Electronic energy at  298.15 [K]                           -112.65708655 [Eh]

  Enthalpy, H_trans = E_trans + k_B * T
    Electronic H            0.000 [kcal/mol]        0.000 [kJ/mol]       0.00000000 [Eh]
    Translational H         1.481 [kcal/mol]        6.197 [kJ/mol]       0.00236046 [Eh]
    Rotational H            0.592 [kcal/mol]        2.479 [kJ/mol]       0.00094418 [Eh]
    Vibrational H           4.433 [kcal/mol]       18.550 [kJ/mol]       0.00706518 [Eh]
  Correction H              6.507 [kcal/mol]       27.226 [kJ/mol]       0.01036983 [Eh]
  Total H, Enthalpy at  298.15 [K]                                    -112.65614236 [Eh]

  Gibbs free energy, G = H - T * S
    Electronic G            0.000 [kcal/mol]        0.000 [kJ/mol]       0.00000000 [Eh]
    Translational G        -9.229 [kcal/mol]      -38.615 [kJ/mol]      -0.01470771 [Eh]
    Rotational G           -2.789 [kcal/mol]      -11.671 [kJ/mol]      -0.00444512 [Eh]
    Vibrational G           3.453 [kcal/mol]       14.448 [kJ/mol]       0.00550305 [Eh]
  Correction G             -8.565 [kcal/mol]      -35.837 [kJ/mol]      -0.01364978 [Eh]
  Total G, Free enthalpy at  298.15 [K]                               -112.68016196 [Eh]

*** Psi4 exiting successfully. Buy a developer a beer!
