                               Psi4 1.3.2 release

  ==> Input File <==

--------------------------------------------------------------------------
set basis  cc-pVDZ
molecule {
0 1
   O        0.00000        0.00000        0.49152
   C        0.00000        0.00000       -0.65516
}
energy('scf')
frequencies('scf')
--------------------------------------------------------------------------

    Molecular point group: c2v
  Charge       = 0
  Multiplicity = 1
  Basis Set: CC-PVDZ
    Blend: CC-PVDZ
  Basis Set: (CC-PVDZ AUX)
    Blend: CC-PVDZ-JKFIT
  @DF-RHF Final Energy:  -112.74653589135242
    Total Energy =                       -112.7465358913524227
    Molecular point group: c2v
  Basis Set: CC-PVDZ
    Blend: CC-PVDZ
  Basis Set: (CC-PVDZ AUX)
    Blend: CC-PVDZ-JKFIT
  @DF-RHF Final Energy:  -112.74653589146058
    Total Energy =                       -112.7465358914605815
  Basis Set: CC-PVDZ
    Blend: CC-PVDZ
  Basis Set: (CC-PVDZ AUX)
    Blend: CC-PVDZ-JKFIT

  -Total Gradient:
     Atom            X                  Y                   Z
    ------   -----------------  -----------------  -----------------
       1        0.000000000000     0.000000000000     0.093738535733
       2        0.000000000000    -0.000000000000    -0.093738535733

  Charge       = 0
  Multiplicity = 1
  Basis Set: CC-PVDZ
    Blend: CC-PVDZ
  Basis Set: (CC-PVDZ AUX)
    Blend: CC-PVDZ-JKFIT

    Orbital Energies [Eh]
    ---------------------

    Doubly Occupied:

       1A1   -20.669770     2A1   -11.374346     3A1    -1.510217
       4A1    -0.800400     1B2    -0.626456     1B1    -0.626456
       5A1    -0.550985

  @DF-RHF Final Energy:  -112.74653589146058

   => Energetics <=

    Nuclear Repulsion Energy =             22.1513465937837957
    One-Electron Energy =                -197.4785041681099074
    Two-Electron Energy =                  62.5806216828655408
    Total Energy =                       -112.7465358914605815

  Dipole Moment: [D]
     X:     0.0000      Y:     0.0000      Z:    -0.3255     Total:     0.3255

    Molecular point group: c2v
  Basis Set: CC-PVDZ
    Blend: CC-PVDZ
  Basis Set: (CC-PVDZ AUX)
    Blend: CC-PVDZ-JKFIT
  Basis Set: (CC-PVDZ AUX)
    Blend: CC-PVDZ-JKFIT
    Molecular point group: c2v

    Geometry (in Angstrom), charge = 0, multiplicity = 1:

       Center              X                  Y                   Z               Mass
    ------------   -----------------  -----------------  -----------------  -----------------
         O            0.000000000000     0.000000000000     0.491523556581    15.994914619570
         C            0.000000000000     0.000000000000    -0.655156443419    12.000000000000

  Basis Set: CC-PVDZ
    Blend: CC-PVDZ
  Basis Set: (CC-PVDZ AUX)
    Blend: CC-PVDZ-JKFIT

  Vibration                       4                   5                   6
  Freq [cm^-1]                 408.3201            408.3201           2145.6330
  Irrep                                                                   A1
  Reduced mass [u]             13.4388             13.4388             13.4388
  Force const [mDyne/A]         1.3201              1.3201             36.4519

  IR activ [km/mol]             0.4965              0.4965             149.4101

  ==> Thermochemistry Components <==

  Entropy, S
    Electronic S            0.000 [cal/(mol K)]        0.000 [J/(mol K)]       0.00000000 [mEh/K] (multiplicity = 1)
    Translational S        35.923 [cal/(mol K)]      150.302 [J/(mol K)]       0.05724692 [mEh/K] (mol. weight = 27.9949 [u], P = 101325.00 [Pa])
    Rotational S           11.343 [cal/(mol K)]       47.458 [J/(mol K)]       0.01807582 [mEh/K] (symmetry no. = 1)
    Vibrational S           1.866 [cal/(mol K)]        7.807 [J/(mol K)]       0.00297343 [mEh/K]
  Total S                  49.132 [cal/(mol K)]      205.567 [J/(mol K)]       0.07829618 [mEh/K]
  Correction S              0.000 [cal/(mol K)]        0.000 [J/(mol K)]       0.00000000 [mEh/K]

  Constant volume heat capacity, Cv
    Electronic Cv           0.000 [cal/(mol K)]        0.000 [J/(mol K)]       0.00000000 [mEh/K]
    Translational Cv        2.981 [cal/(mol K)]       12.472 [J/(mol K)]       0.00475022 [mEh/K]
    Rotational Cv           1.987 [cal/(mol K)]        8.314 [J/(mol K)]       0.00316681 [mEh/K]
    Vibrational Cv          2.911 [cal/(mol K)]       12.180 [J/(mol K)]       0.00463913 [mEh/K]
  Total Cv                  7.879 [cal/(mol K)]       32.966 [J/(mol K)]       0.01255615 [mEh/K]
  Correction Cv             0.000 [cal/(mol K)]        0.000 [J/(mol K)]       0.00000000 [mEh/K]

  Constant pressure heat capacity, Cp
    Electronic Cp           0.000 [cal/(mol K)]        0.000 [J/(mol K)]       0.00000000 [mEh/K]
    Translational Cp        4.968 [cal/(mol K)]       20.786 [J/(mol K)]       0.00791703 [mEh/K]
    Rotational Cp           1.987 [cal/(mol K)]        8.314 [J/(mol K)]       0.00316681 [mEh/K]
    Vibrational Cp          2.911 [cal/(mol K)]       12.180 [J/(mol K)]       0.00463913 [mEh/K]
  Total Cp                  9.866 [cal/(mol K)]       41.281 [J/(mol K)]       0.01572296 [mEh/K]
  Correction Cp             0.000 [cal/(mol K)]        0.000 [J/(mol K)]       0.00000000 [mEh/K]

  ==> Thermochemistry Energy Analysis <==

  Raw electronic energy, E0
  Total E0, Electronic energy at well bottom at 0 [K]                 -112.74653589 [Eh]

  Zero-point energy, ZPE_vib = Sum_i nu_i / 2
    Electronic ZPE          0.000 [kcal/mol]        0.000 [kJ/mol]       0.00000000 [Eh]
    Translational ZPE       0.000 [kcal/mol]        0.000 [kJ/mol]       0.00000000 [Eh]
    Rotational ZPE          0.000 [kcal/mol]        0.000 [kJ/mol]       0.00000000 [Eh]
    Vibrational ZPE         4.235 [kcal/mol]       17.718 [kJ/mol]       0.00674855 [Eh]        1481.137 [cm^-1]
  Correction ZPE            4.235 [kcal/mol]       17.718 [kJ/mol]       0.00674855 [Eh]        1481.137 [cm^-1]
  Total ZPE, Electronic energy at 0 [K]                               -112.73978734 [Eh]

  Thermal Energy, E (includes ZPE)
    Electronic E            0.000 [kcal/mol]        0.000 [kJ/mol]       0.00000000 [Eh]
    Translational E         0.889 [kcal/mol]        3.718 [kJ/mol]       0.00141628 [Eh]
    Rotational E            0.592 [kcal/mol]        2.479 [kJ/mol]       0.00094418 [Eh]
    Vibrational E           4.613 [kcal/mol]       19.302 [kJ/mol]       0.00735156 [Eh]
  Correction E              6.094 [kcal/mol]       25.499 [kJ/mol]       0.00971203 [Eh]
  Total E, Electronic energy at  298.15 [K]                           -112.73682387 [Eh]

  Enthalpy, H_trans = E_trans + k_B * T
    Electronic H            0.000 [kcal/mol]        0.000 [kJ/mol]       0.00000000 [Eh]
    Translational H         1.481 [kcal/mol]        6.197 [kJ/mol]       0.00236046 [Eh]
    Rotational H            0.592 [kcal/mol]        2.479 [kJ/mol]       0.00094418 [Eh]
    Vibrational H           4.613 [kcal/mol]       19.302 [kJ/mol]       0.00735156 [Eh]
  Correction H              6.687 [kcal/mol]       27.978 [kJ/mol]       0.01065621 [Eh]
  Total H, Enthalpy at  298.15 [K]                                    -112.73587968 [Eh]

  Gibbs free energy, G = H - T * S
    Electronic G            0.000 [kcal/mol]        0.000 [kJ/mol]       0.00000000 [Eh]
    Translational G        -9.229 [kcal/mol]      -38.615 [kJ/mol]      -0.01470771 [Eh]
    Rotational G           -2.789 [kcal/mol]      -11.671 [kJ/mol]      -0.00444512 [Eh]
    Vibrational G           4.057 [kcal/mol]       16.974 [kJ/mol]       0.00646504 [Eh]
  Correction G             -7.962 [kcal/mol]      -33.312 [kJ/mol]      -0.01268779 [Eh]
  Total G, Free enthalpy at  298.15 [K]                               -112.75922369 [Eh]

*** Psi4 exiting successfully. Buy a developer a beer!
