                               Psi4 1.3.2 release

  ==> Input File <==

--------------------------------------------------------------------------
set basis  cc-pVDZ
molecule {
0 1
   O        0.00000        0.00000       -0.06797
   H        0.74903        0.00000        0.53936
   H       -0.74903        0.00000        0.53936
}
energy('scf')
frequencies('scf')

--------------------------------------------------------------------------

    Molecular point group: c2v
  Charge       = 0
  Multiplicity = 1
  Basis Set: CC-PVDZ
    Blend: CC-PVDZ
  Basis Set: (CC-PVDZ AUX)
    Blend: CC-PVDZ-JKFIT
  @DF-RHF Final Energy:   -76.02623790063721
    Total Energy =                        -76.0262379006372129
    Molecular point group: c2v
  Basis Set: CC-PVDZ
    Blend: CC-PVDZ
  Basis Set: (CC-PVDZ AUX)
    Blend: CC-PVDZ-JKFIT
  @DF-RHF Final Energy:   -76.02623790066122
    Total Energy =                        -76.0262379006612150
  Basis Set: CC-PVDZ
    Blend: CC-PVDZ
  Basis Set: (CC-PVDZ AUX)
    Blend: CC-PVDZ-JKFIT

  -Total Gradient:
     Atom            X                  Y                   Z
    ------   -----------------  -----------------  -----------------
       1        0.000000000000    -0.000000000000    -0.028807953344
       2        0.012033403584     0.000000000000     0.014403976672
       3       -0.012033403584    -0.000000000000     0.014403976672

  Charge       = 0
  Multiplicity = 1
  Basis Set: CC-PVDZ
    Blend: CC-PVDZ
  Basis Set: (CC-PVDZ AUX)
    Blend: CC-PVDZ-JKFIT

    Orbital Energies [Eh]
    ---------------------

    Doubly Occupied:

       1A1   -20.553086     2A1    -1.335200     1B1    -0.690598
       3A1    -0.570566     1B2    -0.493583

  @DF-RHF Final Energy:   -76.02623790066122

   => Energetics <=

    Nuclear Repulsion Energy =              9.1334334609951409
    One-Electron Energy =                -123.0332779429885903
    Two-Electron Energy =                  37.8736065813322398
    Total Energy =                        -76.0262379006612150

  Dipole Moment: [D]
     X:     0.0000      Y:     0.0000      Z:     2.1023     Total:     2.1023

    Molecular point group: c2v
  Basis Set: CC-PVDZ
    Blend: CC-PVDZ
  Basis Set: (CC-PVDZ AUX)
    Blend: CC-PVDZ-JKFIT
  Basis Set: (CC-PVDZ AUX)
    Blend: CC-PVDZ-JKFIT
    Molecular point group: c2v

    Geometry (in Angstrom), charge = 0, multiplicity = 1:

       Center              X                  Y                   Z               Mass
    ------------   -----------------  -----------------  -----------------  -----------------
         O            0.000000000000     0.000000000000    -0.067969259994    15.994914619570
         H            0.749030000000     0.000000000000     0.539360740006     1.007825032230
         H           -0.749030000000    -0.000000000000     0.539360740006     1.007825032230

  Basis Set: CC-PVDZ
    Blend: CC-PVDZ
  Basis Set: (CC-PVDZ AUX)
    Blend: CC-PVDZ-JKFIT

  Vibration                       4                   5                   6
  Freq [cm^-1]                 472.1249            526.3009            608.7147
  Irrep                           A2                  B1                  B2
  Reduced mass [u]              1.0078              1.0478              1.1259
  Force const [mDyne/A]         0.1324              0.1710              0.2458

  IR activ [km/mol]             0.0000             103.6246            282.8561

  Vibration                       7                   8                   9
  Freq [cm^-1]                1842.4203           3877.3967           3952.1002
  Irrep                           A1                  A1                  B1
  Reduced mass [u]              1.0804              1.0473              1.0798
  Force const [mDyne/A]         2.1609              9.2765              9.9371

  IR activ [km/mol]            75.1414             19.5530             46.6681

  ==> Thermochemistry Components <==

  Entropy, S
    Electronic S            0.000 [cal/(mol K)]        0.000 [J/(mol K)]       0.00000000 [mEh/K] (multiplicity = 1)
    Translational S        34.608 [cal/(mol K)]      144.801 [J/(mol K)]       0.05515177 [mEh/K] (mol. weight = 18.0106 [u], P = 101325.00 [Pa])
    Rotational S           10.508 [cal/(mol K)]       43.968 [J/(mol K)]       0.01674635 [mEh/K] (symmetry no. = 2)
    Vibrational S           1.765 [cal/(mol K)]        7.384 [J/(mol K)]       0.00281232 [mEh/K]
  Total S                  46.882 [cal/(mol K)]      196.152 [J/(mol K)]       0.07471045 [mEh/K]
  Correction S              0.000 [cal/(mol K)]        0.000 [J/(mol K)]       0.00000000 [mEh/K]

  Constant volume heat capacity, Cv
    Electronic Cv           0.000 [cal/(mol K)]        0.000 [J/(mol K)]       0.00000000 [mEh/K]
    Translational Cv        2.981 [cal/(mol K)]       12.472 [J/(mol K)]       0.00475022 [mEh/K]
    Rotational Cv           2.981 [cal/(mol K)]       12.472 [J/(mol K)]       0.00475022 [mEh/K]
    Vibrational Cv          3.539 [cal/(mol K)]       14.806 [J/(mol K)]       0.00563922 [mEh/K]
  Total Cv                  9.500 [cal/(mol K)]       39.749 [J/(mol K)]       0.01513965 [mEh/K]
  Correction Cv             0.000 [cal/(mol K)]        0.000 [J/(mol K)]       0.00000000 [mEh/K]

  Constant pressure heat capacity, Cp
    Electronic Cp           0.000 [cal/(mol K)]        0.000 [J/(mol K)]       0.00000000 [mEh/K]
    Translational Cp        4.968 [cal/(mol K)]       20.786 [J/(mol K)]       0.00791703 [mEh/K]
    Rotational Cp           2.981 [cal/(mol K)]       12.472 [J/(mol K)]       0.00475022 [mEh/K]
    Vibrational Cp          3.539 [cal/(mol K)]       14.806 [J/(mol K)]       0.00563922 [mEh/K]
  Total Cp                 11.487 [cal/(mol K)]       48.064 [J/(mol K)]       0.01830646 [mEh/K]
  Correction Cp             0.000 [cal/(mol K)]        0.000 [J/(mol K)]       0.00000000 [mEh/K]

  ==> Thermochemistry Energy Analysis <==

  Raw electronic energy, E0
  Total E0, Electronic energy at well bottom at 0 [K]                  -76.02623790 [Eh]

  Zero-point energy, ZPE_vib = Sum_i nu_i / 2
    Electronic ZPE          0.000 [kcal/mol]        0.000 [kJ/mol]       0.00000000 [Eh]
    Translational ZPE       0.000 [kcal/mol]        0.000 [kJ/mol]       0.00000000 [Eh]
    Rotational ZPE          0.000 [kcal/mol]        0.000 [kJ/mol]       0.00000000 [Eh]
    Vibrational ZPE        16.124 [kcal/mol]       67.464 [kJ/mol]       0.02569558 [Eh]        5639.529 [cm^-1]
  Correction ZPE           16.124 [kcal/mol]       67.464 [kJ/mol]       0.02569558 [Eh]        5639.529 [cm^-1]
  Total ZPE, Electronic energy at 0 [K]                                -76.00054232 [Eh]

  Thermal Energy, E (includes ZPE)
    Electronic E            0.000 [kcal/mol]        0.000 [kJ/mol]       0.00000000 [Eh]
    Translational E         0.889 [kcal/mol]        3.718 [kJ/mol]       0.00141628 [Eh]
    Rotational E            0.889 [kcal/mol]        3.718 [kJ/mol]       0.00141628 [Eh]
    Vibrational E          16.505 [kcal/mol]       69.058 [kJ/mol]       0.02630289 [Eh]
  Correction E             18.283 [kcal/mol]       76.495 [kJ/mol]       0.02913544 [Eh]
  Total E, Electronic energy at  298.15 [K]                            -75.99710246 [Eh]

  Enthalpy, H_trans = E_trans + k_B * T
    Electronic H            0.000 [kcal/mol]        0.000 [kJ/mol]       0.00000000 [Eh]
    Translational H         1.481 [kcal/mol]        6.197 [kJ/mol]       0.00236046 [Eh]
    Rotational H            0.889 [kcal/mol]        3.718 [kJ/mol]       0.00141628 [Eh]
    Vibrational H          16.505 [kcal/mol]       69.058 [kJ/mol]       0.02630289 [Eh]
  Correction H             18.875 [kcal/mol]       78.974 [kJ/mol]       0.03007963 [Eh]
  Total H, Enthalpy at  298.15 [K]                                     -75.99615828 [Eh]

  Gibbs free energy, G = H - T * S
    Electronic G            0.000 [kcal/mol]        0.000 [kJ/mol]       0.00000000 [Eh]
    Translational G        -8.837 [kcal/mol]      -36.975 [kJ/mol]      -0.01408304 [Eh]
    Rotational G           -2.244 [kcal/mol]       -9.390 [kJ/mol]      -0.00357665 [Eh]
    Vibrational G          15.979 [kcal/mol]       66.857 [kJ/mol]       0.02546439 [Eh]
  Correction G              4.898 [kcal/mol]       20.491 [kJ/mol]       0.00780471 [Eh]
  Total G, Free enthalpy at  298.15 [K]                                -76.01843320 [Eh]

*** Psi4 exiting successfully. Buy a developer a beer!
