                               Psi4 1.3.2 release

  ==> Input File <==

--------------------------------------------------------------------------
set basis  cc-pVTZ
molecule {
0 1
   C       -1.22151       -0.69325        0.00000
   C       -1.21114        0.71122        0.00000
   C       -0.01037       -1.40452        0.00000
   C        0.01037        1.40452        0.00000
   C        1.21114       -0.71122        0.00000
   C        1.22151        0.69325        0.00000
   H       -2.17311       -1.23332        0.00000
   H       -2.15464        1.26533        0.00000
   H       -0.01848       -2.49865        0.00000
   H        0.01848        2.49865        0.00000
   H        2.15464       -1.26533        0.00000
   H        2.17311        1.23332        0.00000
}
energy('MP2')
frequencies('MP2')
--------------------------------------------------------------------------

    Molecular point group: c2h
  Charge       = 0
  Multiplicity = 1
  Basis Set: CC-PVTZ
    Blend: CC-PVTZ
  Basis Set: (CC-PVTZ AUX)
    Blend: CC-PVTZ-JKFIT
  @DF-RHF Final Energy:  -230.77575022425668
    Total Energy =                       -230.7757502242566829
  Basis Set: (CC-PVTZ AUX)
    Blend: CC-PVTZ-RI
	 Reference Energy          =    -230.7757502242566829 [Eh]
	 Singles Energy            =      -0.0000000000000000 [Eh]
	 Same-Spin Energy          =      -0.2520366301011849 [Eh]
	 Opposite-Spin Energy      =      -0.7917741480163293 [Eh]
	 Correlation Energy        =      -1.0438107781175141 [Eh]
	 Total Energy              =    -231.8195610023742006 [Eh]
	 SCS Total Energy          =    -231.8098914119100016 [Eh]
    Molecular point group: c2h
  Basis Set: CC-PVTZ
    Blend: CC-PVTZ
  Basis Set: (CC-PVTZ AUX)
    Blend: CC-PVTZ-JKFIT
  @DF-RHF Final Energy:  -230.77575022419640
    Total Energy =                       -230.7757502241964289
  Basis Set: (CC-PVTZ AUX)
  @DF-RHF Final Energy:  -230.77575022380626
    Total Energy =                       -230.7757502238062557
  @DF-RHF Final Energy:  -230.77573530265431
    Total Energy =                       -230.7757353026543115
  @DF-RHF Final Energy:  -230.77576344795091
    Total Energy =                       -230.7757634479509079
  @DF-RHF Final Energy:  -230.77574242235539
    Total Energy =                       -230.7757424223553926
  @DF-RHF Final Energy:  -230.77575597558251
    Total Energy =                       -230.7757559755825127
  @DF-RHF Final Energy:  -230.77573514398765
    Total Energy =                       -230.7757351439876174
  @DF-RHF Final Energy:  -230.77576345261508
    Total Energy =                       -230.7757634526150810
  @DF-RHF Final Energy:  -230.77575586133034
    Total Energy =                       -230.7757558613303104
  @DF-RHF Final Energy:  -230.77574268895322
    Total Energy =                       -230.7757426889532439
  @DF-RHF Final Energy:  -230.77574900683490
    Total Energy =                       -230.7757490068348716
  @DF-RHF Final Energy:  -230.77574927015235
    Total Energy =                       -230.7757492701523461
  @DF-RHF Final Energy:  -230.77573371382869
    Total Energy =                       -230.7757337138286857
  @DF-RHF Final Energy:  -230.77576514691899
    Total Energy =                       -230.7757651469189568
  @DF-RHF Final Energy:  -230.77565082922033
    Total Energy =                       -230.7756508292203534
  @DF-RHF Final Energy:  -230.77584220710474
    Total Energy =                       -230.7758422071047448
  @DF-RHF Final Energy:  -230.77570435166166
    Total Energy =                       -230.7757043516616591
  @DF-RHF Final Energy:  -230.77579312118615
    Total Energy =                       -230.7757931211861546
  @DF-RHF Final Energy:  -230.77564899333012
    Total Energy =                       -230.7756489933301509
  @DF-RHF Final Energy:  -230.77585133679048
    Total Energy =                       -230.7758513367904811
  @DF-RHF Final Energy:  -230.77574981597053
    Total Energy =                       -230.7757498159705278
  @DF-RHF Final Energy:  -230.77574975117275
    Total Energy =                       -230.7757497511727252
  @DF-RHF Final Energy:  -230.77574973817045
    Total Energy =                       -230.7757497381704184
  @DF-RHF Final Energy:  -230.77574964976287
    Total Energy =                       -230.7757496497628722
  @DF-RHF Final Energy:  -230.77574997009270
    Total Energy =                       -230.7757499700927042
  @DF-RHF Final Energy:  -230.77574996467484
    Total Energy =                       -230.7757499646748443
  @DF-RHF Final Energy:  -230.77574988505711
    Total Energy =                       -230.7757498850571096
  @DF-RHF Final Energy:  -230.77574973353063
    Total Energy =                       -230.7757497335306311
  @DF-RHF Final Energy:  -230.77574973329803
    Total Energy =                       -230.7757497332980279
  @DF-RHF Final Energy:  -230.77574917085033
    Total Energy =                       -230.7757491708503039
  @DF-RHF Final Energy:  -230.77574934963346
    Total Energy =                       -230.7757493496334291
  @DF-RHF Final Energy:  -230.77574904386526
    Total Energy =                       -230.7757490438652326
  @DF-RHF Final Energy:  -230.77574924643605
    Total Energy =                       -230.7757492464360212
  @DF-RHF Final Energy:  -230.77574784377538
    Total Energy =                       -230.7757478437753775
  @DF-RHF Final Energy:  -230.77574746136457
    Total Energy =                       -230.7757474613645741
  @DF-RHF Final Energy:  -230.77574719011781
    Total Energy =                       -230.7757471901177837
  @DF-RHF Final Energy:  -230.77574808042959
    Total Energy =                       -230.7757480804295938
  @DF-RHF Final Energy:  -230.77574808089969
    Total Energy =                       -230.7757480808996888
    Molecular point group: cs
  Charge       = 0
  Multiplicity = 1
  Basis Set: CC-PVTZ
    Blend: CC-PVTZ
  Basis Set: (CC-PVTZ AUX)
    Blend: CC-PVTZ-JKFIT

    Orbital Energies [Eh]
    ---------------------

    Doubly Occupied:

       1Ap   -11.239540     2Ap   -11.238992     3Ap   -11.238973
       4Ap   -11.237810     5Ap   -11.237793     6Ap   -11.237212
       7Ap    -1.141838     8Ap    -1.008631     9Ap    -1.008624
      10Ap    -0.818796    11Ap    -0.818783    12Ap    -0.701610
      13Ap    -0.640685    14Ap    -0.613390    15Ap    -0.582952
      16Ap    -0.582949     1App   -0.496848    17Ap    -0.491819
      18Ap    -0.491790     2App   -0.333774     3App   -0.333764

  @DF-RHF Final Energy:  -230.77574718999608

   => Energetics <=

    Nuclear Repulsion Energy =            202.0133184684007119
    One-Electron Energy =                -710.5849846998222574
    Two-Electron Energy =                 277.7959190414254635
    Total Energy =                       -230.7757471899960819

  Dipole Moment: [D]
     X:    -0.0011      Y:    -0.0018      Z:     0.0000     Total:     0.0021

  Basis Set: (CC-PVTZ AUX)
    Blend: CC-PVTZ-RI
    Molecular point group: cs

    Geometry (in Angstrom), charge = 0, multiplicity = 1:

       Center              X                  Y                   Z               Mass
    ------------   -----------------  -----------------  -----------------  -----------------
         C           -1.221510000000    -0.693250000000     0.000000000000    12.000000000000
         C           -1.211140000000     0.711220000000     0.000000000000    12.000000000000
         C           -0.010370000000    -1.404520000000     0.000000000000    12.000000000000
         C            0.010370000000     1.404520000000     0.000000000000    12.000000000000
         C            1.211140000000    -0.711220000000     0.000000000000    12.000000000000
         C            1.221510000000     0.693250000000     0.000000000000    12.000000000000
         H           -2.173110000000    -1.233320000000     0.000000000000     1.007825032230
         H           -2.154640000000     1.264012202829     0.000000000000     1.007825032230
         H           -0.018480000000    -2.497332202829     0.000000000000     1.007825032230
         H            0.018480000000     2.499967797171     0.000000000000     1.007825032230
         H            2.154640000000    -1.266647797171     0.000000000000     1.007825032230
         H            2.173110000000     1.233320000000     0.000000000000     1.007825032230

  Basis Set: CC-PVTZ
    Blend: CC-PVTZ
  Basis Set: (CC-PVTZ AUX)
    Blend: CC-PVTZ-JKFIT
  Basis Set: (CC-PVTZ AUX)
    Blend: CC-PVTZ-JKFIT
	 Reference Energy          =    -230.7757471899960819 [Eh]
	 Singles Energy            =      -0.0000000000000000 [Eh]
	 Same-Spin Energy          =      -0.2520366659842561 [Eh]
	 Opposite-Spin Energy      =      -0.7917742984872791 [Eh]
	 Correlation Energy        =      -1.0438109644715352 [Eh]
	 Total Energy              =    -231.8195581544676145 [Eh]

	 ================> DF-SCS-MP2 Energies <==================
	-----------------------------------------------------------
	 SCS Same-Spin Scale       =       0.3333333333333333 [-]
	 SCS Opposite-Spin Scale   =       1.2000000000000000 [-]
	 SCS Same-Spin Energy      =      -0.0840122219947520 [Eh]
	 SCS Opposite-Spin Energy  =      -0.9501291581847349 [Eh]
	 SCS Correlation Energy    =      -1.0341413801794870 [Eh]
	 SCS Total Energy          =    -231.8098885701755592 [Eh]
	-----------------------------------------------------------

  -Total Gradient:
     Atom            X                  Y                   Z
    ------   -----------------  -----------------  -----------------
       1       -0.003328227350    -0.001814381374     0.000000000000
       2       -0.003471569656     0.002142765310     0.000000000000
       3        0.000014097025    -0.004550906283     0.000000000000
       4        0.000053635490     0.002975566304     0.000000000000
       5        0.002969980958    -0.001561989926     0.000000000000
       6        0.003165709338     0.001810249295     0.000000000000
       7       -0.010433902602    -0.005927376163     0.000000000000
       8       -0.010061139910     0.005761772962     0.000000000000
       9       -0.000091175628    -0.011169851305     0.000000000000
      10        0.000092089345     0.012820104274     0.000000000000
      11        0.010642409313    -0.006411091916     0.000000000000
      12        0.010448093674     0.005925138821     0.000000000000

  Vibration                       7                   8                   9
  Freq [cm^-1]                 447.3868            447.4159            614.2001
  Irrep                           Au                  Au                  Ag
  Reduced mass [u]              3.1496              3.1492              6.3292
  Force const [mDyne/A]         0.3714              0.3714              1.4068

  Vibration                       10                  11                  12
  Freq [cm^-1]                 614.2172            725.6004            797.7514
  Irrep                           Ag                  Bg                  Au
  Reduced mass [u]              6.3294              4.7762              1.0848
  Force const [mDyne/A]         1.4069              1.4816              0.4068

  Vibration                       13                  14                  15
  Freq [cm^-1]                 940.3574            940.4093            977.1747
  Irrep                           Bg                  Bg                  Ag
  Reduced mass [u]              1.2479              1.2479              6.0067
  Force const [mDyne/A]         0.6501              0.6502              3.3794

  Vibration                       16                  17                  18
  Freq [cm^-1]                1016.3896           1030.9414           1030.9968
  Irrep                           Bu                  Au                  Au
  Reduced mass [u]              6.5431              1.3192              1.3191
  Force const [mDyne/A]         3.9825              0.8261              0.8261

  Vibration                       19                  20                  21
  Freq [cm^-1]                1047.1826           1056.1869           1056.2183
  Irrep                           Bg                  Bu                  Bu
  Reduced mass [u]              1.1545              1.9211              1.9208
  Force const [mDyne/A]         0.7459              1.2627              1.2625

  Vibration                       22                  23                  24
  Freq [cm^-1]                1205.7721           1215.9217           1215.9768
  Irrep                           Bu                  Ag                  Ag
  Reduced mass [u]              1.1189              1.1904              1.1903
  Force const [mDyne/A]         0.9585              1.0369              1.0370

  Vibration                       25                  26                  27
  Freq [cm^-1]                1397.3462           1405.5040           1508.5134
  Irrep                           Ag                  Bu                  Bu
  Reduced mass [u]              1.2479              5.4997              1.7727
  Force const [mDyne/A]         1.4356              6.4010              2.3767

  Vibration                       28                  29                  30
  Freq [cm^-1]                1508.5169           1600.9921           1601.0988
  Irrep                           Bu                  Ag                  Ag
  Reduced mass [u]              1.7729              4.2659              4.2669
  Force const [mDyne/A]         2.3771              6.4423              6.4446

  Vibration                       31                  32                  33
  Freq [cm^-1]                3042.5510           3059.8712           3059.9952
  Irrep                           Bu                  Ag                  Ag
  Reduced mass [u]              1.0837              1.0885              1.0885
  Force const [mDyne/A]         5.9108              6.0048              6.0053

  Vibration                       34                  35                  36
  Freq [cm^-1]                3081.5964           3081.7112           3096.0465
  Irrep                           Bu                  Bu                  Ag
  Reduced mass [u]              1.0956              1.0956              1.1000
  Force const [mDyne/A]         6.1300              6.1304              6.2124

  ==> Thermochemistry Components <==

  Entropy, S
    Electronic S            0.000 [cal/(mol K)]        0.000 [J/(mol K)]       0.00000000 [mEh/K] (multiplicity = 1)
    Translational S        38.979 [cal/(mol K)]      163.089 [J/(mol K)]       0.06211726 [mEh/K] (mol. weight = 78.0470 [u], P = 101325.00 [Pa])
    Rotational S           24.318 [cal/(mol K)]      101.746 [J/(mol K)]       0.03875307 [mEh/K] (symmetry no. = 2)
    Vibrational S           3.956 [cal/(mol K)]       16.553 [J/(mol K)]       0.00630455 [mEh/K]
  Total S                  67.253 [cal/(mol K)]      281.388 [J/(mol K)]       0.10717489 [mEh/K]
  Correction S              0.000 [cal/(mol K)]        0.000 [J/(mol K)]       0.00000000 [mEh/K]

  Constant volume heat capacity, Cv
    Electronic Cv           0.000 [cal/(mol K)]        0.000 [J/(mol K)]       0.00000000 [mEh/K]
    Translational Cv        2.981 [cal/(mol K)]       12.472 [J/(mol K)]       0.00475022 [mEh/K]
    Rotational Cv           2.981 [cal/(mol K)]       12.472 [J/(mol K)]       0.00475022 [mEh/K]
    Vibrational Cv         10.538 [cal/(mol K)]       44.091 [J/(mol K)]       0.01679335 [mEh/K]
  Total Cv                 16.500 [cal/(mol K)]       69.034 [J/(mol K)]       0.02629378 [mEh/K]
  Correction Cv             0.000 [cal/(mol K)]        0.000 [J/(mol K)]       0.00000000 [mEh/K]

  Constant pressure heat capacity, Cp
    Electronic Cp           0.000 [cal/(mol K)]        0.000 [J/(mol K)]       0.00000000 [mEh/K]
    Translational Cp        4.968 [cal/(mol K)]       20.786 [J/(mol K)]       0.00791703 [mEh/K]
    Rotational Cp           2.981 [cal/(mol K)]       12.472 [J/(mol K)]       0.00475022 [mEh/K]
    Vibrational Cp         10.538 [cal/(mol K)]       44.091 [J/(mol K)]       0.01679335 [mEh/K]
  Total Cp                 18.487 [cal/(mol K)]       77.349 [J/(mol K)]       0.02946060 [mEh/K]
  Correction Cp             0.000 [cal/(mol K)]        0.000 [J/(mol K)]       0.00000000 [mEh/K]

  ==> Thermochemistry Energy Analysis <==

  Raw electronic energy, E0
  Total E0, Electronic energy at well bottom at 0 [K]                 -231.81956102 [Eh]

  Zero-point energy, ZPE_vib = Sum_i nu_i / 2
    Electronic ZPE          0.000 [kcal/mol]        0.000 [kJ/mol]       0.00000000 [Eh]
    Translational ZPE       0.000 [kcal/mol]        0.000 [kJ/mol]       0.00000000 [Eh]
    Rotational ZPE          0.000 [kcal/mol]        0.000 [kJ/mol]       0.00000000 [Eh]
    Vibrational ZPE        62.649 [kcal/mol]      262.125 [kJ/mol]       0.09983806 [Eh]       21911.921 [cm^-1]
  Correction ZPE           62.649 [kcal/mol]      262.125 [kJ/mol]       0.09983806 [Eh]       21911.921 [cm^-1]
  Total ZPE, Electronic energy at 0 [K]                               -231.71972296 [Eh]

  Thermal Energy, E (includes ZPE)
    Electronic E            0.000 [kcal/mol]        0.000 [kJ/mol]       0.00000000 [Eh]
    Translational E         0.889 [kcal/mol]        3.718 [kJ/mol]       0.00141628 [Eh]
    Rotational E            0.889 [kcal/mol]        3.718 [kJ/mol]       0.00141628 [Eh]
    Vibrational E          63.540 [kcal/mol]      265.852 [kJ/mol]       0.10125781 [Eh]
  Correction E             65.318 [kcal/mol]      273.289 [kJ/mol]       0.10409036 [Eh]
  Total E, Electronic energy at  298.15 [K]                           -231.71547066 [Eh]

  Enthalpy, H_trans = E_trans + k_B * T
    Electronic H            0.000 [kcal/mol]        0.000 [kJ/mol]       0.00000000 [Eh]
    Translational H         1.481 [kcal/mol]        6.197 [kJ/mol]       0.00236046 [Eh]
    Rotational H            0.889 [kcal/mol]        3.718 [kJ/mol]       0.00141628 [Eh]
    Vibrational H          63.540 [kcal/mol]      265.852 [kJ/mol]       0.10125781 [Eh]
  Correction H             65.910 [kcal/mol]      275.768 [kJ/mol]       0.10503455 [Eh]
  Total H, Enthalpy at  298.15 [K]                                    -231.71452647 [Eh]

  Gibbs free energy, G = H - T * S
    Electronic G            0.000 [kcal/mol]        0.000 [kJ/mol]       0.00000000 [Eh]
    Translational G       -10.140 [kcal/mol]      -42.428 [kJ/mol]      -0.01615980 [Eh]
    Rotational G           -6.362 [kcal/mol]      -26.617 [kJ/mol]      -0.01013795 [Eh]
    Vibrational G          62.361 [kcal/mol]      260.917 [kJ/mol]       0.09937811 [Eh]
  Correction G             45.859 [kcal/mol]      191.872 [kJ/mol]       0.07308035 [Eh]
  Total G, Free enthalpy at  298.15 [K]                               -231.74648066 [Eh]

*** Psi4 exiting successfully. Buy a developer a beer!
