                               Psi4 1.3.2 release

  ==> Input File <==

--------------------------------------------------------------------------
set basis  6-31++G**
molecule {
0 1
   O        0.00000        0.00000       -0.06797
   H        0.74903        0.00000        0.53936
   H       -0.74903        0.00000        0.53936
}
energy('MP2')
frequencies('MP2')

--------------------------------------------------------------------------

    Molecular point group: c2v
  Charge       = 0
  Multiplicity = 1
  Basis Set: 6-31++G**
    Blend: 6-31++G**
  Basis Set: (6-31++G** AUX)
    Blend: AUG-CC-PVDZ-JKFIT
  @DF-RHF Final Energy:   -76.02982256214774
    Total Energy =                        -76.0298225621477428
  Basis Set: (6-31++G** AUX)
    Blend: AUG-CC-PVDZ-RI
	 Reference Energy          =     -76.0298225621477428 [Eh]
	 Singles Energy            =      -0.0000000000000000 [Eh]
	 Same-Spin Energy          =      -0.0522328932383534 [Eh]
	 Opposite-Spin Energy      =      -0.1537872870800800 [Eh]
	 Correlation Energy        =      -0.2060201803184334 [Eh]
	 Total Energy              =     -76.2358427424661755 [Eh]
	 SCS Total Energy          =     -76.2317782710566263 [Eh]
    Molecular point group: c2v
  Basis Set: 6-31++G**
    Blend: 6-31++G**
  Basis Set: (6-31++G** AUX)
    Blend: AUG-CC-PVDZ-JKFIT
  @DF-RHF Final Energy:   -76.02982256214767
    Total Energy =                        -76.0298225621476718
  Basis Set: (6-31++G** AUX)
  @DF-RHF Final Energy:   -76.02982256214766
    Total Energy =                        -76.0298225621476718
  @DF-RHF Final Energy:   -76.02967781361414
    Total Energy =                        -76.0296778136141427
  @DF-RHF Final Energy:   -76.02996022367307
    Total Energy =                        -76.0299602236730721
  @DF-RHF Final Energy:   -76.02989853607971
    Total Energy =                        -76.0298985360797133
  @DF-RHF Final Energy:   -76.02973632615100
    Total Energy =                        -76.0297363261509815
    Molecular point group: cs
  Charge       = 0
  Multiplicity = 1
  Basis Set: 6-31++G**
    Blend: 6-31++G**
  Basis Set: (6-31++G** AUX)
    Blend: AUG-CC-PVDZ-JKFIT

    Orbital Energies [Eh]
    ---------------------

    Doubly Occupied:

       1Ap   -20.584860     2Ap    -1.355054     3Ap    -0.711113
       4Ap    -0.587357     1App   -0.509572

  @DF-RHF Final Energy:   -76.02981517251342

   => Energetics <=

    Nuclear Repulsion Energy =              9.1334682877742281
    One-Electron Energy =                -122.8306551887348235
    Two-Electron Energy =                  37.6673717284471792
    Total Energy =                        -76.0298151725134090

  Dipole Moment: [D]
     X:     0.0032      Y:     0.0000      Z:     2.3372     Total:     2.3372

  Basis Set: (6-31++G** AUX)
    Blend: AUG-CC-PVDZ-RI
    Molecular point group: cs

    Geometry (in Angstrom), charge = 0, multiplicity = 1:

       Center              X                  Y                   Z               Mass
    ------------   -----------------  -----------------  -----------------  -----------------
         O           -0.000175859669     0.000000000000    -0.067969259994    15.994914619570
         H            0.750425510279     0.000000000000     0.540492250436     1.007825032230
         H           -0.747634489721     0.000000000000     0.538229229576     1.007825032230

  Basis Set: 6-31++G**
    Blend: 6-31++G**
  Basis Set: (6-31++G** AUX)
    Blend: AUG-CC-PVDZ-JKFIT
  Basis Set: (6-31++G** AUX)
    Blend: AUG-CC-PVDZ-JKFIT
	 Reference Energy          =     -76.0298151725134232 [Eh]
	 Singles Energy            =      -0.0000000000000000 [Eh]
	 Same-Spin Energy          =      -0.0522328326149751 [Eh]
	 Opposite-Spin Energy      =      -0.1537872416501470 [Eh]
	 Correlation Energy        =      -0.2060200742651221 [Eh]
	 Total Energy              =     -76.2358352467785494 [Eh]

	 ================> DF-SCS-MP2 Energies <==================
	-----------------------------------------------------------
	 SCS Same-Spin Scale       =       0.3333333333333333 [-]
	 SCS Opposite-Spin Scale   =       1.2000000000000000 [-]
	 SCS Same-Spin Energy      =      -0.0174109442049917 [Eh]
	 SCS Opposite-Spin Energy  =      -0.1845446899801764 [Eh]
	 SCS Correlation Energy    =      -0.2019556341851681 [Eh]
	 SCS Total Energy          =     -76.2317708066985915 [Eh]
	-----------------------------------------------------------

  -Total Gradient:
     Atom            X                  Y                   Z
    ------   -----------------  -----------------  -----------------
       1       -0.003199795984     0.000000000000    -0.007669463753
       2       -0.001980730966     0.000000000000     0.005118510111
       3        0.005180526950     0.000000000000     0.002550953641

  Vibration                       7                   8                   9
  Freq [cm^-1]                1645.3042           3860.0442           3980.7060
  Irrep                           A1                  A1                  B1
  Reduced mass [u]              1.0813              1.0464              1.0793
  Force const [mDyne/A]         1.7246              9.1863             10.0764

  ==> Thermochemistry Components <==

  Entropy, S
    Electronic S            0.000 [cal/(mol K)]        0.000 [J/(mol K)]       0.00000000 [mEh/K] (multiplicity = 1)
    Translational S        34.608 [cal/(mol K)]      144.801 [J/(mol K)]       0.05515177 [mEh/K] (mol. weight = 18.0106 [u], P = 101325.00 [Pa])
    Rotational S           10.508 [cal/(mol K)]       43.968 [J/(mol K)]       0.01674635 [mEh/K] (symmetry no. = 2)
    Vibrational S           0.006 [cal/(mol K)]        0.026 [J/(mol K)]       0.00001009 [mEh/K]
  Total S                  45.123 [cal/(mol K)]      188.795 [J/(mol K)]       0.07190822 [mEh/K]
  Correction S              0.000 [cal/(mol K)]        0.000 [J/(mol K)]       0.00000000 [mEh/K]

  Constant volume heat capacity, Cv
    Electronic Cv           0.000 [cal/(mol K)]        0.000 [J/(mol K)]       0.00000000 [mEh/K]
    Translational Cv        2.981 [cal/(mol K)]       12.472 [J/(mol K)]       0.00475022 [mEh/K]
    Rotational Cv           2.981 [cal/(mol K)]       12.472 [J/(mol K)]       0.00475022 [mEh/K]
    Vibrational Cv          0.045 [cal/(mol K)]        0.187 [J/(mol K)]       0.00007120 [mEh/K]
  Total Cv                  6.006 [cal/(mol K)]       25.130 [J/(mol K)]       0.00957163 [mEh/K]
  Correction Cv             0.000 [cal/(mol K)]        0.000 [J/(mol K)]       0.00000000 [mEh/K]

  Constant pressure heat capacity, Cp
    Electronic Cp           0.000 [cal/(mol K)]        0.000 [J/(mol K)]       0.00000000 [mEh/K]
    Translational Cp        4.968 [cal/(mol K)]       20.786 [J/(mol K)]       0.00791703 [mEh/K]
    Rotational Cp           2.981 [cal/(mol K)]       12.472 [J/(mol K)]       0.00475022 [mEh/K]
    Vibrational Cp          0.045 [cal/(mol K)]        0.187 [J/(mol K)]       0.00007120 [mEh/K]
  Total Cp                  7.993 [cal/(mol K)]       33.445 [J/(mol K)]       0.01273844 [mEh/K]
  Correction Cp             0.000 [cal/(mol K)]        0.000 [J/(mol K)]       0.00000000 [mEh/K]

  ==> Thermochemistry Energy Analysis <==

  Raw electronic energy, E0
  Total E0, Electronic energy at well bottom at 0 [K]                  -76.23584274 [Eh]

  Zero-point energy, ZPE_vib = Sum_i nu_i / 2
    Electronic ZPE          0.000 [kcal/mol]        0.000 [kJ/mol]       0.00000000 [Eh]
    Translational ZPE       0.000 [kcal/mol]        0.000 [kJ/mol]       0.00000000 [Eh]
    Rotational ZPE          0.000 [kcal/mol]        0.000 [kJ/mol]       0.00000000 [Eh]
    Vibrational ZPE        13.561 [kcal/mol]       56.739 [kJ/mol]       0.02161082 [Eh]        4743.027 [cm^-1]
  Correction ZPE           13.561 [kcal/mol]       56.739 [kJ/mol]       0.02161082 [Eh]        4743.027 [cm^-1]
  Total ZPE, Electronic energy at 0 [K]                                -76.21423192 [Eh]

  Thermal Energy, E (includes ZPE)
    Electronic E            0.000 [kcal/mol]        0.000 [kJ/mol]       0.00000000 [Eh]
    Translational E         0.889 [kcal/mol]        3.718 [kJ/mol]       0.00141628 [Eh]
    Rotational E            0.889 [kcal/mol]        3.718 [kJ/mol]       0.00141628 [Eh]
    Vibrational E          13.563 [kcal/mol]       56.746 [kJ/mol]       0.02161349 [Eh]
  Correction E             15.340 [kcal/mol]       64.183 [kJ/mol]       0.02444605 [Eh]
  Total E, Electronic energy at  298.15 [K]                            -76.21139669 [Eh]

  Enthalpy, H_trans = E_trans + k_B * T
    Electronic H            0.000 [kcal/mol]        0.000 [kJ/mol]       0.00000000 [Eh]
    Translational H         1.481 [kcal/mol]        6.197 [kJ/mol]       0.00236046 [Eh]
    Rotational H            0.889 [kcal/mol]        3.718 [kJ/mol]       0.00141628 [Eh]
    Vibrational H          13.563 [kcal/mol]       56.746 [kJ/mol]       0.02161349 [Eh]
  Correction H             15.933 [kcal/mol]       66.662 [kJ/mol]       0.02539023 [Eh]
  Total H, Enthalpy at  298.15 [K]                                     -76.21045251 [Eh]

  Gibbs free energy, G = H - T * S
    Electronic G            0.000 [kcal/mol]        0.000 [kJ/mol]       0.00000000 [Eh]
    Translational G        -8.837 [kcal/mol]      -36.975 [kJ/mol]      -0.01408304 [Eh]
    Rotational G           -2.244 [kcal/mol]       -9.390 [kJ/mol]      -0.00357665 [Eh]
    Vibrational G          13.561 [kcal/mol]       56.738 [kJ/mol]       0.02161049 [Eh]
  Correction G              2.479 [kcal/mol]       10.373 [kJ/mol]       0.00395080 [Eh]
  Total G, Free enthalpy at  298.15 [K]                                -76.23189195 [Eh]

*** Psi4 exiting successfully. Buy a developer a beer!
