                               Psi4 1.3.2 release

  ==> Input File <==

--------------------------------------------------------------------------
set basis  6-31+G*
molecule {
0 1
   O        0.00000        0.00000       -0.06797
   H        0.74903        0.00000        0.53936
   H       -0.74903        0.00000        0.53936
}
energy('MP2')
frequencies('MP2')

--------------------------------------------------------------------------

    Molecular point group: c2v
  Charge       = 0
  Multiplicity = 1
  Basis Set: 6-31+G*
    Blend: 6-31+G*
  Basis Set: (6-31+G* AUX)
    Blend: HEAVY-AUG-CC-PVDZ-JKFIT
  @DF-RHF Final Energy:   -76.01666678123958
    Total Energy =                        -76.0166667812395787
  Basis Set: (6-31+G* AUX)
    Blend: HEAVY-AUG-CC-PVDZ-RI
	 Reference Energy          =     -76.0166667812395787 [Eh]
	 Singles Energy            =      -0.0000000000000000 [Eh]
	 Same-Spin Energy          =      -0.0502812466961021 [Eh]
	 Opposite-Spin Energy      =      -0.1448254229601206 [Eh]
	 Correlation Energy        =      -0.1951066696562228 [Eh]
	 Total Energy              =     -76.2117734508958051 [Eh]
	 SCS Total Energy          =     -76.2072177043570917 [Eh]
    Molecular point group: c2v
  Basis Set: 6-31+G*
    Blend: 6-31+G*
  Basis Set: (6-31+G* AUX)
    Blend: HEAVY-AUG-CC-PVDZ-JKFIT
  @DF-RHF Final Energy:   -76.01666678123958
    Total Energy =                        -76.0166667812395644
  Basis Set: (6-31+G* AUX)
  @DF-RHF Final Energy:   -76.01666678123952
    Total Energy =                        -76.0166667812395360
  @DF-RHF Final Energy:   -76.01654466232372
    Total Energy =                        -76.0165446623237244
  @DF-RHF Final Energy:   -76.01678169703408
    Total Energy =                        -76.0167816970340766
  @DF-RHF Final Energy:   -76.01671590097293
    Total Energy =                        -76.0167159009729119
  @DF-RHF Final Energy:   -76.01660743981449
    Total Energy =                        -76.0166074398144929
    Molecular point group: cs
  Charge       = 0
  Multiplicity = 1
  Basis Set: 6-31+G*
    Blend: 6-31+G*
  Basis Set: (6-31+G* AUX)
    Blend: HEAVY-AUG-CC-PVDZ-JKFIT

    Orbital Energies [Eh]
    ---------------------

    Doubly Occupied:

       1Ap   -20.583430     2Ap    -1.355684     3Ap    -0.713530
       4Ap    -0.588773     1App   -0.509535

  @DF-RHF Final Energy:   -76.01665944016572

   => Energetics <=

    Nuclear Repulsion Energy =              9.1334682877742281
    One-Electron Energy =                -122.7983524887443139
    Two-Electron Energy =                  37.6482247608043537
    Total Energy =                        -76.0166594401657250

  Dipole Moment: [D]
     X:     0.0032      Y:     0.0000      Z:     2.3854     Total:     2.3854

  Basis Set: (6-31+G* AUX)
    Blend: HEAVY-AUG-CC-PVDZ-RI
    Molecular point group: cs

    Geometry (in Angstrom), charge = 0, multiplicity = 1:

       Center              X                  Y                   Z               Mass
    ------------   -----------------  -----------------  -----------------  -----------------
         O           -0.000175859669     0.000000000000    -0.067969259994    15.994914619570
         H            0.750425510279     0.000000000000     0.540492250436     1.007825032230
         H           -0.747634489721     0.000000000000     0.538229229576     1.007825032230

  Basis Set: 6-31+G*
    Blend: 6-31+G*
  Basis Set: (6-31+G* AUX)
    Blend: HEAVY-AUG-CC-PVDZ-JKFIT
  Basis Set: (6-31+G* AUX)
    Blend: HEAVY-AUG-CC-PVDZ-JKFIT
	 Reference Energy          =     -76.0166594401657250 [Eh]
	 Singles Energy            =      -0.0000000000000000 [Eh]
	 Same-Spin Energy          =      -0.0502811813631083 [Eh]
	 Opposite-Spin Energy      =      -0.1448253780549125 [Eh]
	 Correlation Energy        =      -0.1951065594180208 [Eh]
	 Total Energy              =     -76.2117659995837471 [Eh]

	 ================> DF-SCS-MP2 Energies <==================
	-----------------------------------------------------------
	 SCS Same-Spin Scale       =       0.3333333333333333 [-]
	 SCS Opposite-Spin Scale   =       1.2000000000000000 [-]
	 SCS Same-Spin Energy      =      -0.0167603937877028 [Eh]
	 SCS Opposite-Spin Energy  =      -0.1737904536658950 [Eh]
	 SCS Correlation Energy    =      -0.1905508474535977 [Eh]
	 SCS Total Energy          =     -76.2072102876193185 [Eh]
	-----------------------------------------------------------

  -Total Gradient:
     Atom            X                  Y                   Z
    ------   -----------------  -----------------  -----------------
       1       -0.003182688732     0.000000000000     0.000458110949
       2       -0.008877749200     0.000000000000     0.001045906967
       3        0.012060437932     0.000000000000    -0.001504017916

  Vibration                       7                   8                   9
  Freq [cm^-1]                1703.0443           3848.0896           3968.9390
  Irrep                           A1                  A1                  B1
  Reduced mass [u]              1.0811              1.0466              1.0793
  Force const [mDyne/A]         1.8475              9.1312             10.0169

  ==> Thermochemistry Components <==

  Entropy, S
    Electronic S            0.000 [cal/(mol K)]        0.000 [J/(mol K)]       0.00000000 [mEh/K] (multiplicity = 1)
    Translational S        34.608 [cal/(mol K)]      144.801 [J/(mol K)]       0.05515177 [mEh/K] (mol. weight = 18.0106 [u], P = 101325.00 [Pa])
    Rotational S           10.508 [cal/(mol K)]       43.968 [J/(mol K)]       0.01674635 [mEh/K] (symmetry no. = 2)
    Vibrational S           0.005 [cal/(mol K)]        0.021 [J/(mol K)]       0.00000787 [mEh/K]
  Total S                  45.122 [cal/(mol K)]      188.789 [J/(mol K)]       0.07190600 [mEh/K]
  Correction S              0.000 [cal/(mol K)]        0.000 [J/(mol K)]       0.00000000 [mEh/K]

  Constant volume heat capacity, Cv
    Electronic Cv           0.000 [cal/(mol K)]        0.000 [J/(mol K)]       0.00000000 [mEh/K]
    Translational Cv        2.981 [cal/(mol K)]       12.472 [J/(mol K)]       0.00475022 [mEh/K]
    Rotational Cv           2.981 [cal/(mol K)]       12.472 [J/(mol K)]       0.00475022 [mEh/K]
    Vibrational Cv          0.036 [cal/(mol K)]        0.152 [J/(mol K)]       0.00005772 [mEh/K]
  Total Cv                  5.998 [cal/(mol K)]       25.095 [J/(mol K)]       0.00955816 [mEh/K]
  Correction Cv             0.000 [cal/(mol K)]        0.000 [J/(mol K)]       0.00000000 [mEh/K]

  Constant pressure heat capacity, Cp
    Electronic Cp           0.000 [cal/(mol K)]        0.000 [J/(mol K)]       0.00000000 [mEh/K]
    Translational Cp        4.968 [cal/(mol K)]       20.786 [J/(mol K)]       0.00791703 [mEh/K]
    Rotational Cp           2.981 [cal/(mol K)]       12.472 [J/(mol K)]       0.00475022 [mEh/K]
    Vibrational Cp          0.036 [cal/(mol K)]        0.152 [J/(mol K)]       0.00005772 [mEh/K]
  Total Cp                  7.985 [cal/(mol K)]       33.409 [J/(mol K)]       0.01272497 [mEh/K]
  Correction Cp             0.000 [cal/(mol K)]        0.000 [J/(mol K)]       0.00000000 [mEh/K]

  ==> Thermochemistry Energy Analysis <==

  Raw electronic energy, E0
  Total E0, Electronic energy at well bottom at 0 [K]                  -76.21177345 [Eh]

  Zero-point energy, ZPE_vib = Sum_i nu_i / 2
    Electronic ZPE          0.000 [kcal/mol]        0.000 [kJ/mol]       0.00000000 [Eh]
    Translational ZPE       0.000 [kcal/mol]        0.000 [kJ/mol]       0.00000000 [Eh]
    Rotational ZPE          0.000 [kcal/mol]        0.000 [kJ/mol]       0.00000000 [Eh]
    Vibrational ZPE        13.610 [kcal/mol]       56.943 [kJ/mol]       0.02168832 [Eh]        4760.036 [cm^-1]
  Correction ZPE           13.610 [kcal/mol]       56.943 [kJ/mol]       0.02168832 [Eh]        4760.036 [cm^-1]
  Total ZPE, Electronic energy at 0 [K]                                -76.19008513 [Eh]

  Thermal Energy, E (includes ZPE)
    Electronic E            0.000 [kcal/mol]        0.000 [kJ/mol]       0.00000000 [Eh]
    Translational E         0.889 [kcal/mol]        3.718 [kJ/mol]       0.00141628 [Eh]
    Rotational E            0.889 [kcal/mol]        3.718 [kJ/mol]       0.00141628 [Eh]
    Vibrational E          13.611 [kcal/mol]       56.948 [kJ/mol]       0.02169042 [Eh]
  Correction E             15.388 [kcal/mol]       64.385 [kJ/mol]       0.02452297 [Eh]
  Total E, Electronic energy at  298.15 [K]                            -76.18725048 [Eh]

  Enthalpy, H_trans = E_trans + k_B * T
    Electronic H            0.000 [kcal/mol]        0.000 [kJ/mol]       0.00000000 [Eh]
    Translational H         1.481 [kcal/mol]        6.197 [kJ/mol]       0.00236046 [Eh]
    Rotational H            0.889 [kcal/mol]        3.718 [kJ/mol]       0.00141628 [Eh]
    Vibrational H          13.611 [kcal/mol]       56.948 [kJ/mol]       0.02169042 [Eh]
  Correction H             15.981 [kcal/mol]       66.864 [kJ/mol]       0.02546715 [Eh]
  Total H, Enthalpy at  298.15 [K]                                     -76.18630630 [Eh]

  Gibbs free energy, G = H - T * S
    Electronic G            0.000 [kcal/mol]        0.000 [kJ/mol]       0.00000000 [Eh]
    Translational G        -8.837 [kcal/mol]      -36.975 [kJ/mol]      -0.01408304 [Eh]
    Rotational G           -2.244 [kcal/mol]       -9.390 [kJ/mol]      -0.00357665 [Eh]
    Vibrational G          13.609 [kcal/mol]       56.942 [kJ/mol]       0.02168807 [Eh]
  Correction G              2.528 [kcal/mol]       10.577 [kJ/mol]       0.00402838 [Eh]
  Total G, Free enthalpy at  298.15 [K]                                -76.20774507 [Eh]

*** Psi4 exiting successfully. Buy a developer a beer!
