                               Psi4 1.3.2 release

  ==> Input File <==

--------------------------------------------------------------------------
set basis  6-31G
molecule {
0 1
   C        0.32153        0.81326        0.00000
   C       -0.86505       -0.12817        0.00000
   C        0.54353       -0.68508        0.00000
   H        0.53795        1.36069       -0.92039
   H        0.53795        1.36069        0.92039
   H       -1.44742       -0.21449        0.92034
   H       -1.44742       -0.21449       -0.92034
   H        0.90937       -1.14629       -0.92037
   H        0.90937       -1.14629        0.92037
}
energy('B3LYP')
frequencies('B3LYP')
--------------------------------------------------------------------------

    Molecular point group: cs
  Charge       = 0
  Multiplicity = 1
  Basis Set: 6-31G
    Blend: 6-31G
  Basis Set: (6-31G AUX)
    Blend: CC-PVDZ-JKFIT
  @DF-RKS Final Energy:  -117.86354773333454
    Total Energy =                       -117.8635477333345278
    Molecular point group: cs
  Basis Set: 6-31G
    Blend: 6-31G
  Basis Set: (6-31G AUX)
    Blend: CC-PVDZ-JKFIT
  @DF-RKS Final Energy:  -117.86354773328335
    Total Energy =                       -117.8635477332833545
  Basis Set: 6-31G
    Blend: 6-31G
  Basis Set: (6-31G AUX)
    Blend: CC-PVDZ-JKFIT
  Basis Set: 6-31G
    Blend: 6-31G
  Basis Set: (6-31G AUX)
    Blend: CC-PVDZ-JKFIT
  @DF-RKS Final Energy:  -117.86354773328384
    Total Energy =                       -117.8635477332838377
  Basis Set: 6-31G
  @DF-RKS Final Energy:  -117.86354484075464
    Total Energy =                       -117.8635448407546562
  @DF-RKS Final Energy:  -117.86355698299352
    Total Energy =                       -117.8635569829935150
  @DF-RKS Final Energy:  -117.86353715501632
    Total Energy =                       -117.8635371550163171
  @DF-RKS Final Energy:  -117.86355824320749
    Total Energy =                       -117.8635582432074926
  @DF-RKS Final Energy:  -117.86355744559930
    Total Energy =                       -117.8635574455992980
  @DF-RKS Final Energy:  -117.86353571504900
    Total Energy =                       -117.8635357150489966
  @DF-RKS Final Energy:  -117.86354678783437
    Total Energy =                       -117.8635467878343661
  @DF-RKS Final Energy:  -117.86355429651471
    Total Energy =                       -117.8635542965147067
  @DF-RKS Final Energy:  -117.86354524563887
    Total Energy =                       -117.8635452456388748
  @DF-RKS Final Energy:  -117.86355019385002
    Total Energy =                       -117.8635501938500170
  @DF-RKS Final Energy:  -117.86355092550497
    Total Energy =                       -117.8635509255049669
  @DF-RKS Final Energy:  -117.86354270329726
    Total Energy =                       -117.8635427032972416
  @DF-RKS Final Energy:  -117.86355383334887
    Total Energy =                       -117.8635538333488739
  @DF-RKS Final Energy:  -117.86354658262806
    Total Energy =                       -117.8635465826280608
  @DF-RKS Final Energy:  -117.86355361656459
    Total Energy =                       -117.8635536165645874
  @DF-RKS Final Energy:  -117.86353855146035
    Total Energy =                       -117.8635385514603513
  @DF-RKS Final Energy:  -117.86350604707471
    Total Energy =                       -117.8635060470747078
  @DF-RKS Final Energy:  -117.86358247532364
    Total Energy =                       -117.8635824753236392
  @DF-RKS Final Energy:  -117.86354353488818
    Total Energy =                       -117.8635435348881799
  @DF-RKS Final Energy:  -117.86356095433983
    Total Energy =                       -117.8635609543398459
  @DF-RKS Final Energy:  -117.86358238033404
    Total Energy =                       -117.8635823803340372
  @DF-RKS Final Energy:  -117.86350614241772
    Total Energy =                       -117.8635061424177195
  @DF-RKS Final Energy:  -117.86350609836448
    Total Energy =                       -117.8635060983644820
  @DF-RKS Final Energy:  -117.86358242435088
    Total Energy =                       -117.8635824243508807
  @DF-RKS Final Energy:  -117.86354578411704
    Total Energy =                       -117.8635457841170364
  @DF-RKS Final Energy:  -117.86354557473690
    Total Energy =                       -117.8635455747369036
  @DF-RKS Final Energy:  -117.86354488425076
    Total Energy =                       -117.8635448842507571
  @DF-RKS Final Energy:  -117.86354686482562
    Total Energy =                       -117.8635468648256222
  @DF-RKS Final Energy:  -117.86354559871215
    Total Energy =                       -117.8635455987121503
  @DF-RKS Final Energy:  -117.86354561899041
    Total Energy =                       -117.8635456189904147
  @DF-RKS Final Energy:  -117.86354542109970
    Total Energy =                       -117.8635454210997011
  Basis Set: (6-31G AUX)
    Blend: CC-PVDZ-JKFIT
  Basis Set: 6-31G
    Blend: 6-31G
  Basis Set: (6-31G AUX)
    Blend: CC-PVDZ-JKFIT
  @DF-RKS Final Energy:  -117.86354714480133
    Total Energy =                       -117.8635471448013305
  Basis Set: 6-31G
    Blend: 6-31G
  Basis Set: (6-31G AUX)
    Blend: CC-PVDZ-JKFIT
    Molecular point group: c1
  Charge       = 0
  Multiplicity = 1
  Basis Set: 6-31G
    Blend: 6-31G
  Basis Set: (6-31G AUX)
    Blend: CC-PVDZ-JKFIT

    Orbital Energies [Eh]
    ---------------------

    Doubly Occupied:

       1A    -10.179201     2A    -10.178985     3A    -10.178981
       4A     -0.849213     5A     -0.590954     6A     -0.590949
       7A     -0.491034     8A     -0.460722     9A     -0.360203
      10A     -0.360190    11A     -0.290190    12A     -0.290184

  @DF-RKS Final Energy:  -117.86354523068769

   => Energetics <=

    Nuclear Repulsion Energy =             75.2814718714328848
    One-Electron Energy =                -305.8733839347387971
    Two-Electron Energy =                 127.7141385965421421
    DFT Exchange-Correlation Energy =     -14.9857717639239123
    Empirical Dispersion Energy =           0.0000000000000000
    VV10 Nonlocal Energy =                  0.0000000000000000
    Total Energy =                       -117.8635452306876914

  Dipole Moment: [D]
     X:    -0.0001      Y:    -0.0001      Z:    -0.0008     Total:     0.0008

    Molecular point group: c1

    Geometry (in Angstrom), charge = 0, multiplicity = 1:

       Center              X                  Y                   Z               Mass
    ------------   -----------------  -----------------  -----------------  -----------------
         C            0.321531939855     0.813261460475     0.000000000000    12.000000000000
         C           -0.865048060145    -0.128168539525     0.000000000000    12.000000000000
         C            0.543531939855    -0.685078539525     0.000000000000    12.000000000000
         H            0.537951939855     1.360691460475    -0.920390000000     1.007825032230
         H            0.537951939855     1.360691460475     0.920390000000     1.007825032230
         H           -1.447418060145    -0.214488539525     0.919737951237     1.007825032230
         H           -1.447418060145    -0.214488539525    -0.920942048763     1.007825032230
         H            0.907830274543    -1.145679013968    -0.919767951237     1.007825032230
         H            0.910913605168    -1.146898065083     0.920972048763     1.007825032230

  Basis Set: 6-31G
    Blend: 6-31G
  Basis Set: (6-31G AUX)
    Blend: CC-PVDZ-JKFIT

  -Total Gradient:
     Atom            X                  Y                   Z
    ------   -----------------  -----------------  -----------------
       1       -0.002516799373    -0.006351438196    -0.000000457911
       2        0.006788465626     0.001009991136     0.000427696607
       3       -0.004247709281     0.005364556925    -0.001220627865
       4        0.000364479117     0.000926997627    -0.005424580449
       5        0.000370205318     0.000939170218     0.005422831725
       6       -0.000825380189    -0.000148214240     0.005136723178
       7       -0.001175479554    -0.000155672377    -0.005690705017
       8        0.000250723687    -0.000424670802    -0.004742793150
       9        0.000991314789    -0.001156074750     0.006092076762

  Vibration                       7                   8                   9
  Freq [cm^-1]                 816.6093            816.7745            892.9549
  Irrep                          App                 App                  Ap
  Reduced mass [u]              1.0194              1.0195              3.9984
  Force const [mDyne/A]         0.4005              0.4007              1.8784

  Vibration                       10                  11                  12
  Freq [cm^-1]                 893.9843            924.4016           1121.4231
  Irrep                           Ap                 App                  Ap
  Reduced mass [u]              4.0084              1.0451              1.2378
  Force const [mDyne/A]         1.8875              0.5262              0.9172

  Vibration                       13                  14                  15
  Freq [cm^-1]                1124.3003           1167.9575           1188.6086
  Irrep                           Ap                  Ap                 App
  Reduced mass [u]              1.2394              1.4255              1.0078
  Force const [mDyne/A]         0.9231              1.1457              0.8389

  Vibration                       16                  17                  18
  Freq [cm^-1]                1236.5098           1258.6115           1258.7336
  Irrep                           Ap                 App                 App
  Reduced mass [u]              3.0429              1.4601              1.4600
  Force const [mDyne/A]         2.7411              1.3627              1.3629

  Vibration                       19                  20                  21
  Freq [cm^-1]                1526.5252           1526.8056           1558.0920
  Irrep                           Ap                  Ap                  Ap
  Reduced mass [u]              1.0865              1.0869              1.2498
  Force const [mDyne/A]         1.4917              1.4928              1.7877

  Vibration                       22                  23                  24
  Freq [cm^-1]                3084.8291           3085.0771           3096.4508
  Irrep                           Ap                  Ap                  Ap
  Reduced mass [u]              1.0504              1.0505              1.0648
  Force const [mDyne/A]         5.8894              5.8910              6.0153

  Vibration                       25                  26                  27
  Freq [cm^-1]                3165.4879           3165.5116           3190.6334
  Irrep                          App                 App                 App
  Reduced mass [u]              1.1169              1.1169              1.1149
  Force const [mDyne/A]         6.5939              6.5941              6.6873

  ==> Thermochemistry Components <==

  Entropy, S
    Electronic S            0.000 [cal/(mol K)]        0.000 [J/(mol K)]       0.00000000 [mEh/K] (multiplicity = 1)
    Translational S        37.135 [cal/(mol K)]      155.375 [J/(mol K)]       0.05917914 [mEh/K] (mol. weight = 42.0470 [u], P = 101325.00 [Pa])
    Rotational S           21.699 [cal/(mol K)]       90.789 [J/(mol K)]       0.03457982 [mEh/K] (symmetry no. = 1)
    Vibrational S           1.136 [cal/(mol K)]        4.755 [J/(mol K)]       0.00181093 [mEh/K]
  Total S                  59.971 [cal/(mol K)]      250.919 [J/(mol K)]       0.09556989 [mEh/K]
  Correction S              0.000 [cal/(mol K)]        0.000 [J/(mol K)]       0.00000000 [mEh/K]

  Constant volume heat capacity, Cv
    Electronic Cv           0.000 [cal/(mol K)]        0.000 [J/(mol K)]       0.00000000 [mEh/K]
    Translational Cv        2.981 [cal/(mol K)]       12.472 [J/(mol K)]       0.00475022 [mEh/K]
    Rotational Cv           2.981 [cal/(mol K)]       12.472 [J/(mol K)]       0.00475022 [mEh/K]
    Vibrational Cv          4.414 [cal/(mol K)]       18.466 [J/(mol K)]       0.00703342 [mEh/K]
  Total Cv                 10.375 [cal/(mol K)]       43.410 [J/(mol K)]       0.01653385 [mEh/K]
  Correction Cv             0.000 [cal/(mol K)]        0.000 [J/(mol K)]       0.00000000 [mEh/K]

  Constant pressure heat capacity, Cp
    Electronic Cp           0.000 [cal/(mol K)]        0.000 [J/(mol K)]       0.00000000 [mEh/K]
    Translational Cp        4.968 [cal/(mol K)]       20.786 [J/(mol K)]       0.00791703 [mEh/K]
    Rotational Cp           2.981 [cal/(mol K)]       12.472 [J/(mol K)]       0.00475022 [mEh/K]
    Vibrational Cp          4.414 [cal/(mol K)]       18.466 [J/(mol K)]       0.00703342 [mEh/K]
  Total Cp                 12.362 [cal/(mol K)]       51.724 [J/(mol K)]       0.01970066 [mEh/K]
  Correction Cp             0.000 [cal/(mol K)]        0.000 [J/(mol K)]       0.00000000 [mEh/K]

  ==> Thermochemistry Energy Analysis <==

  Raw electronic energy, E0
  Total E0, Electronic energy at well bottom at 0 [K]                 -117.86354773 [Eh]

  Zero-point energy, ZPE_vib = Sum_i nu_i / 2
    Electronic ZPE          0.000 [kcal/mol]        0.000 [kJ/mol]       0.00000000 [Eh]
    Translational ZPE       0.000 [kcal/mol]        0.000 [kJ/mol]       0.00000000 [Eh]
    Rotational ZPE          0.000 [kcal/mol]        0.000 [kJ/mol]       0.00000000 [Eh]
    Vibrational ZPE        51.608 [kcal/mol]      215.928 [kJ/mol]       0.08224249 [Eh]       18050.141 [cm^-1]
  Correction ZPE           51.608 [kcal/mol]      215.928 [kJ/mol]       0.08224249 [Eh]       18050.141 [cm^-1]
  Total ZPE, Electronic energy at 0 [K]                               -117.78130524 [Eh]

  Thermal Energy, E (includes ZPE)
    Electronic E            0.000 [kcal/mol]        0.000 [kJ/mol]       0.00000000 [Eh]
    Translational E         0.889 [kcal/mol]        3.718 [kJ/mol]       0.00141628 [Eh]
    Rotational E            0.889 [kcal/mol]        3.718 [kJ/mol]       0.00141628 [Eh]
    Vibrational E          51.886 [kcal/mol]      217.091 [kJ/mol]       0.08268561 [Eh]
  Correction E             53.663 [kcal/mol]      224.528 [kJ/mol]       0.08551816 [Eh]
  Total E, Electronic energy at  298.15 [K]                           -117.77802957 [Eh]

  Enthalpy, H_trans = E_trans + k_B * T
    Electronic H            0.000 [kcal/mol]        0.000 [kJ/mol]       0.00000000 [Eh]
    Translational H         1.481 [kcal/mol]        6.197 [kJ/mol]       0.00236046 [Eh]
    Rotational H            0.889 [kcal/mol]        3.718 [kJ/mol]       0.00141628 [Eh]
    Vibrational H          51.886 [kcal/mol]      217.091 [kJ/mol]       0.08268561 [Eh]
  Correction H             54.256 [kcal/mol]      227.007 [kJ/mol]       0.08646235 [Eh]
  Total H, Enthalpy at  298.15 [K]                                    -117.77708539 [Eh]

  Gibbs free energy, G = H - T * S
    Electronic G            0.000 [kcal/mol]        0.000 [kJ/mol]       0.00000000 [Eh]
    Translational G        -9.591 [kcal/mol]      -40.128 [kJ/mol]      -0.01528380 [Eh]
    Rotational G           -5.581 [kcal/mol]      -23.350 [kJ/mol]      -0.00889370 [Eh]
    Vibrational G          51.547 [kcal/mol]      215.673 [kJ/mol]       0.08214568 [Eh]
  Correction G             36.376 [kcal/mol]      152.195 [kJ/mol]       0.05796818 [Eh]
  Total G, Free enthalpy at  298.15 [K]                               -117.80557955 [Eh]

*** Psi4 exiting successfully. Buy a developer a beer!
