                               Psi4 1.3.2 release

  ==> Input File <==

--------------------------------------------------------------------------
set basis  6-31g
molecule {
0 1
   C       -0.61446        0.00000        0.00000
   C        0.61446        0.00000        0.00000
   H       -1.68923        0.00000        0.00000
   H        1.68923        0.00000        0.00000
}
energy('scf')
frequencies('scf')
--------------------------------------------------------------------------

    Molecular point group: d2h
  Charge       = 0
  Multiplicity = 1
  Basis Set: 6-31G
    Blend: 6-31G
  Basis Set: (6-31G AUX)
    Blend: CC-PVDZ-JKFIT
  @DF-RHF Final Energy:   -76.78939523932782
    Total Energy =                        -76.7893952393278170
    Molecular point group: d2h
  Basis Set: 6-31G
    Blend: 6-31G
  Basis Set: (6-31G AUX)
    Blend: CC-PVDZ-JKFIT
  @DF-RHF Final Energy:   -76.78939523934100
    Total Energy =                        -76.7893952393410046
  Basis Set: 6-31G
    Blend: 6-31G
  Basis Set: (6-31G AUX)
    Blend: CC-PVDZ-JKFIT

  -Total Gradient:
     Atom            X                  Y                   Z
    ------   -----------------  -----------------  -----------------
       1       -0.058746160115    -0.000000000000     0.000000000000
       2        0.058746160115     0.000000000000     0.000000000000
       3       -0.017193222063    -0.000000000000     0.000000000000
       4        0.017193222063     0.000000000000     0.000000000000

  Charge       = 0
  Multiplicity = 1
  Basis Set: 6-31G
    Blend: 6-31G
  Basis Set: (6-31G AUX)
    Blend: CC-PVDZ-JKFIT

    Orbital Energies [Eh]
    ---------------------

    Doubly Occupied:

       1Ag   -11.254851     1B3u  -11.251717     2Ag    -1.023535
       2B3u   -0.756094     3Ag    -0.669541     1B2u   -0.398636
       1B1u   -0.398636

  @DF-RHF Final Energy:   -76.78939523934100

   => Energetics <=

    Nuclear Repulsion Energy =             24.3232181713792350
    One-Electron Energy =                -150.7192086809080820
    Two-Electron Energy =                  49.6065952701878388
    Total Energy =                        -76.7893952393410046

  Dipole Moment: [D]
     X:     0.0000      Y:     0.0000      Z:     0.0000     Total:     0.0000

    Molecular point group: d2h
  Basis Set: 6-31G
    Blend: 6-31G
  Basis Set: (6-31G AUX)
    Blend: CC-PVDZ-JKFIT
  Basis Set: (6-31G AUX)
    Blend: CC-PVDZ-JKFIT
    Molecular point group: d2h

    Geometry (in Angstrom), charge = 0, multiplicity = 1:

       Center              X                  Y                   Z               Mass
    ------------   -----------------  -----------------  -----------------  -----------------
         C           -0.614460000000    -0.000000000000     0.000000000000    12.000000000000
         C            0.614460000000     0.000000000000     0.000000000000    12.000000000000
         H           -1.689230000000    -0.000000000000     0.000000000000     1.007825032230
         H            1.689230000000     0.000000000000     0.000000000000     1.007825032230

  Basis Set: 6-31G
    Blend: 6-31G
  Basis Set: (6-31G AUX)
    Blend: CC-PVDZ-JKFIT

  Vibration                       4                   5                   6
  Freq [cm^-1]                 350.3180            350.3180            966.7169
  Irrep                          B1g                 B2g
  Reduced mass [u]              2.3784              2.3784              1.5264
  Force const [mDyne/A]         0.1720              0.1720              0.8405

  IR activ [km/mol]             0.0000              0.0000              0.0000

  Vibration                       7                   8                   9
  Freq [cm^-1]                 966.7169            986.0830            986.0830
  Irrep
  Reduced mass [u]              1.5264              1.0848              1.0848
  Force const [mDyne/A]         0.8405              0.6215              0.6215

  IR activ [km/mol]             0.0000             147.0863            147.0863

  Vibration                       10                  11                  12
  Freq [cm^-1]                2014.6976           3401.5800           3505.0964
  Irrep                           Ag                 B3u                  Ag
  Reduced mass [u]              3.8723              1.0848              1.2235
  Force const [mDyne/A]         9.2605              7.3955              8.8564

  IR activ [km/mol]             0.0000             109.7619             0.0000

  ==> Thermochemistry Components <==

  Entropy, S
    Electronic S            0.000 [cal/(mol K)]        0.000 [J/(mol K)]       0.00000000 [mEh/K] (multiplicity = 1)
    Translational S        35.704 [cal/(mol K)]      149.387 [J/(mol K)]       0.05689862 [mEh/K] (mol. weight = 26.0157 [u], P = 101325.00 [Pa])
    Rotational S           10.952 [cal/(mol K)]       45.824 [J/(mol K)]       0.01745345 [mEh/K] (symmetry no. = 2)
    Vibrational S           2.743 [cal/(mol K)]       11.475 [J/(mol K)]       0.00437058 [mEh/K]
  Total S                  49.399 [cal/(mol K)]      206.686 [J/(mol K)]       0.07872265 [mEh/K]
  Correction S              0.000 [cal/(mol K)]        0.000 [J/(mol K)]       0.00000000 [mEh/K]

  Constant volume heat capacity, Cv
    Electronic Cv           0.000 [cal/(mol K)]        0.000 [J/(mol K)]       0.00000000 [mEh/K]
    Translational Cv        2.981 [cal/(mol K)]       12.472 [J/(mol K)]       0.00475022 [mEh/K]
    Rotational Cv           1.987 [cal/(mol K)]        8.314 [J/(mol K)]       0.00316681 [mEh/K]
    Vibrational Cv          4.776 [cal/(mol K)]       19.983 [J/(mol K)]       0.00761129 [mEh/K]
  Total Cv                  9.744 [cal/(mol K)]       40.770 [J/(mol K)]       0.01552832 [mEh/K]
  Correction Cv             0.000 [cal/(mol K)]        0.000 [J/(mol K)]       0.00000000 [mEh/K]

  Constant pressure heat capacity, Cp
    Electronic Cp           0.000 [cal/(mol K)]        0.000 [J/(mol K)]       0.00000000 [mEh/K]
    Translational Cp        4.968 [cal/(mol K)]       20.786 [J/(mol K)]       0.00791703 [mEh/K]
    Rotational Cp           1.987 [cal/(mol K)]        8.314 [J/(mol K)]       0.00316681 [mEh/K]
    Vibrational Cp          4.776 [cal/(mol K)]       19.983 [J/(mol K)]       0.00761129 [mEh/K]
  Total Cp                 11.731 [cal/(mol K)]       49.084 [J/(mol K)]       0.01869513 [mEh/K]
  Correction Cp             0.000 [cal/(mol K)]        0.000 [J/(mol K)]       0.00000000 [mEh/K]

  ==> Thermochemistry Energy Analysis <==

  Raw electronic energy, E0
  Total E0, Electronic energy at well bottom at 0 [K]                  -76.78939524 [Eh]

  Zero-point energy, ZPE_vib = Sum_i nu_i / 2
    Electronic ZPE          0.000 [kcal/mol]        0.000 [kJ/mol]       0.00000000 [Eh]
    Translational ZPE       0.000 [kcal/mol]        0.000 [kJ/mol]       0.00000000 [Eh]
    Rotational ZPE          0.000 [kcal/mol]        0.000 [kJ/mol]       0.00000000 [Eh]
    Vibrational ZPE        19.339 [kcal/mol]       80.913 [kJ/mol]       0.03081816 [Eh]        6763.805 [cm^-1]
  Correction ZPE           19.339 [kcal/mol]       80.913 [kJ/mol]       0.03081816 [Eh]        6763.805 [cm^-1]
  Total ZPE, Electronic energy at 0 [K]                                -76.75857708 [Eh]

  Thermal Energy, E (includes ZPE)
    Electronic E            0.000 [kcal/mol]        0.000 [kJ/mol]       0.00000000 [Eh]
    Translational E         0.889 [kcal/mol]        3.718 [kJ/mol]       0.00141628 [Eh]
    Rotational E            0.592 [kcal/mol]        2.479 [kJ/mol]       0.00094418 [Eh]
    Vibrational E          19.893 [kcal/mol]       83.234 [kJ/mol]       0.03170209 [Eh]
  Correction E             21.375 [kcal/mol]       89.431 [kJ/mol]       0.03406256 [Eh]
  Total E, Electronic energy at  298.15 [K]                            -76.75533268 [Eh]

  Enthalpy, H_trans = E_trans + k_B * T
    Electronic H            0.000 [kcal/mol]        0.000 [kJ/mol]       0.00000000 [Eh]
    Translational H         1.481 [kcal/mol]        6.197 [kJ/mol]       0.00236046 [Eh]
    Rotational H            0.592 [kcal/mol]        2.479 [kJ/mol]       0.00094418 [Eh]
    Vibrational H          19.893 [kcal/mol]       83.234 [kJ/mol]       0.03170209 [Eh]
  Correction H             21.967 [kcal/mol]       91.910 [kJ/mol]       0.03500674 [Eh]
  Total H, Enthalpy at  298.15 [K]                                     -76.75438850 [Eh]

  Gibbs free energy, G = H - T * S
    Electronic G            0.000 [kcal/mol]        0.000 [kJ/mol]       0.00000000 [Eh]
    Translational G        -9.164 [kcal/mol]      -38.342 [kJ/mol]      -0.01460386 [Eh]
    Rotational G           -2.673 [kcal/mol]      -11.183 [kJ/mol]      -0.00425956 [Eh]
    Vibrational G          19.076 [kcal/mol]       79.813 [kJ/mol]       0.03039901 [Eh]
  Correction G              7.239 [kcal/mol]       30.287 [kJ/mol]       0.01153558 [Eh]
  Total G, Free enthalpy at  298.15 [K]                                -76.77785966 [Eh]

*** Psi4 exiting successfully. Buy a developer a beer!
