                               Psi4 1.3.2 release

  ==> Input File <==

--------------------------------------------------------------------------
set basis  aug-cc-pVDZ
molecule {
0 1
   C        0.32153        0.81326        0.00000
   C       -0.86505       -0.12817        0.00000
   C        0.54353       -0.68508        0.00000
   H        0.53795        1.36069       -0.92039
   H        0.53795        1.36069        0.92039
   H       -1.44742       -0.21449        0.92034
   H       -1.44742       -0.21449       -0.92034
   H        0.90937       -1.14629       -0.92037
   H        0.90937       -1.14629        0.92037
}
energy('scf')
frequencies('scf')
--------------------------------------------------------------------------

    Molecular point group: cs
  Charge       = 0
  Multiplicity = 1
  Basis Set: AUG-CC-PVDZ
    Blend: AUG-CC-PVDZ
  Basis Set: (AUG-CC-PVDZ AUX)
    Blend: AUG-CC-PVDZ-JKFIT
  @DF-RHF Final Energy:  -117.07044707683156
    Total Energy =                       -117.0704470768315559
    Molecular point group: cs
  Basis Set: AUG-CC-PVDZ
    Blend: AUG-CC-PVDZ
  Basis Set: (AUG-CC-PVDZ AUX)
    Blend: AUG-CC-PVDZ-JKFIT
  @DF-RHF Final Energy:  -117.07044707733603
    Total Energy =                       -117.0704470773360271
  Basis Set: AUG-CC-PVDZ
    Blend: AUG-CC-PVDZ
  Basis Set: (AUG-CC-PVDZ AUX)
    Blend: AUG-CC-PVDZ-JKFIT

  -Total Gradient:
     Atom            X                  Y                   Z
    ------   -----------------  -----------------  -----------------
       1        0.001239744979     0.003137115607     0.000000000000
       2       -0.003309355966    -0.000486534980     0.000000000000
       3        0.002094707205    -0.002629109178     0.000000000000
       4        0.001544465281     0.003910167274    -0.007604460724
       5        0.001544465281     0.003910167274     0.007604460724
       6       -0.004168461999    -0.000620603057     0.007593970111
       7       -0.004168461999    -0.000620603057    -0.007593970111
       8        0.002611448609    -0.003300299942    -0.007600389941
       9        0.002611448609    -0.003300299942     0.007600389941

  Charge       = 0
  Multiplicity = 1
  Basis Set: AUG-CC-PVDZ
    Blend: AUG-CC-PVDZ
  Basis Set: (AUG-CC-PVDZ AUX)
    Blend: AUG-CC-PVDZ-JKFIT

    Orbital Energies [Eh]
    ---------------------

    Doubly Occupied:

       1Ap   -11.233025     2Ap   -11.232063     3Ap   -11.232058
       4Ap    -1.127113     5Ap    -0.814580     6Ap    -0.814575
       1App   -0.662552     7Ap    -0.621769     2App   -0.509412
       3App   -0.509397     8Ap    -0.416644     9Ap    -0.416636

  @DF-RHF Final Energy:  -117.07044707733621

   => Energetics <=

    Nuclear Repulsion Energy =             75.2814648090140253
    One-Electron Energy =                -305.5241742361941419
    Two-Electron Energy =                 113.1722623498438907
    Total Energy =                       -117.0704470773362118

  Dipole Moment: [D]
     X:    -0.0001      Y:    -0.0001      Z:     0.0000     Total:     0.0001

    Molecular point group: cs
  Basis Set: AUG-CC-PVDZ
    Blend: AUG-CC-PVDZ
  Basis Set: (AUG-CC-PVDZ AUX)
    Blend: AUG-CC-PVDZ-JKFIT
  Basis Set: (AUG-CC-PVDZ AUX)
    Blend: AUG-CC-PVDZ-JKFIT
    Molecular point group: cs

    Geometry (in Angstrom), charge = 0, multiplicity = 1:

       Center              X                  Y                   Z               Mass
    ------------   -----------------  -----------------  -----------------  -----------------
         C            0.321531939855     0.813261460475     0.000000000000    12.000000000000
         C           -0.865048060145    -0.128168539525     0.000000000000    12.000000000000
         C            0.543531939855    -0.685078539525     0.000000000000    12.000000000000
         H            0.537951939855     1.360691460475    -0.920390000000     1.007825032230
         H            0.537951939855     1.360691460475     0.920390000000     1.007825032230
         H           -1.447418060145    -0.214488539525     0.920340000000     1.007825032230
         H           -1.447418060145    -0.214488539525    -0.920340000000     1.007825032230
         H            0.909371939855    -1.146288539525    -0.920370000000     1.007825032230
         H            0.909371939855    -1.146288539525     0.920370000000     1.007825032230

  Basis Set: AUG-CC-PVDZ
    Blend: AUG-CC-PVDZ
  Basis Set: (AUG-CC-PVDZ AUX)
    Blend: AUG-CC-PVDZ-JKFIT

  Vibration                       7                   8                   9
  Freq [cm^-1]                 841.2748            841.2791            914.2612
  Irrep                          App                 App                  Ap
  Reduced mass [u]              1.0222              1.0222              3.7419
  Force const [mDyne/A]         0.4262              0.4262              1.8428

  IR activ [km/mol]             0.0000              0.0000             24.9872

  Vibration                       10                  11                  12
  Freq [cm^-1]                 914.2962            952.0892           1182.6662
  Irrep                           Ap                 App                  Ap
  Reduced mass [u]              3.7420              1.0439              1.2573
  Force const [mDyne/A]         1.8430              0.5575              1.0361

  IR activ [km/mol]            24.9792              0.0944              5.2984

  Vibration                       13                  14                  15
  Freq [cm^-1]                1182.6759           1209.0756           1252.4496
  Irrep                           Ap                  Ap                  Ap
  Reduced mass [u]              1.2573              1.4254              2.8038
  Force const [mDyne/A]         1.0362              1.2277              2.5913

  IR activ [km/mol]             5.2962              0.0000              0.0000

  Vibration                       16                  17                  18
  Freq [cm^-1]                1261.4231           1315.5750           1315.5780
  Irrep                          App                 App                 App
  Reduced mass [u]              1.0078              1.4474              1.4474
  Force const [mDyne/A]         0.9448              1.4759              1.4759

  IR activ [km/mol]             0.0000              0.0000              0.0000

  Vibration                       19                  20                  21
  Freq [cm^-1]                1586.5849           1586.5996           1644.2279
  Irrep                           Ap                  Ap                  Ap
  Reduced mass [u]              1.0929              1.0929              1.2941
  Force const [mDyne/A]         1.6209              1.6209              2.0613

  IR activ [km/mol]             0.4471              0.4473              0.0000

  Vibration                       22                  23                  24
  Freq [cm^-1]                3162.7978           3162.8169           3177.3466
  Irrep                           Ap                  Ap                  Ap
  Reduced mass [u]              1.0507              1.0507              1.0656
  Force const [mDyne/A]         6.1926              6.1927              6.3384

  IR activ [km/mol]            35.5412             35.5458              0.0000

  Vibration                       25                  26                  27
  Freq [cm^-1]                3242.5983           3242.6132           3266.5370
  Irrep                          App                 App                 App
  Reduced mass [u]              1.1211              1.1212              1.1163
  Force const [mDyne/A]         6.9454              6.9455              7.0179

  IR activ [km/mol]             0.0000              0.0000             53.0863

  ==> Thermochemistry Components <==

  Entropy, S
    Electronic S            0.000 [cal/(mol K)]        0.000 [J/(mol K)]       0.00000000 [mEh/K] (multiplicity = 1)
    Translational S        37.135 [cal/(mol K)]      155.375 [J/(mol K)]       0.05917914 [mEh/K] (mol. weight = 42.0470 [u], P = 101325.00 [Pa])
    Rotational S           21.699 [cal/(mol K)]       90.789 [J/(mol K)]       0.03457982 [mEh/K] (symmetry no. = 1)
    Vibrational S           0.998 [cal/(mol K)]        4.174 [J/(mol K)]       0.00158968 [mEh/K]
  Total S                  59.832 [cal/(mol K)]      250.338 [J/(mol K)]       0.09534864 [mEh/K]
  Correction S              0.000 [cal/(mol K)]        0.000 [J/(mol K)]       0.00000000 [mEh/K]

  Constant volume heat capacity, Cv
    Electronic Cv           0.000 [cal/(mol K)]        0.000 [J/(mol K)]       0.00000000 [mEh/K]
    Translational Cv        2.981 [cal/(mol K)]       12.472 [J/(mol K)]       0.00475022 [mEh/K]
    Rotational Cv           2.981 [cal/(mol K)]       12.472 [J/(mol K)]       0.00475022 [mEh/K]
    Vibrational Cv          3.974 [cal/(mol K)]       16.629 [J/(mol K)]       0.00633370 [mEh/K]
  Total Cv                  9.936 [cal/(mol K)]       41.573 [J/(mol K)]       0.01583413 [mEh/K]
  Correction Cv             0.000 [cal/(mol K)]        0.000 [J/(mol K)]       0.00000000 [mEh/K]

  Constant pressure heat capacity, Cp
    Electronic Cp           0.000 [cal/(mol K)]        0.000 [J/(mol K)]       0.00000000 [mEh/K]
    Translational Cp        4.968 [cal/(mol K)]       20.786 [J/(mol K)]       0.00791703 [mEh/K]
    Rotational Cp           2.981 [cal/(mol K)]       12.472 [J/(mol K)]       0.00475022 [mEh/K]
    Vibrational Cp          3.974 [cal/(mol K)]       16.629 [J/(mol K)]       0.00633370 [mEh/K]
  Total Cp                 11.923 [cal/(mol K)]       49.887 [J/(mol K)]       0.01900095 [mEh/K]
  Correction Cp             0.000 [cal/(mol K)]        0.000 [J/(mol K)]       0.00000000 [mEh/K]

  ==> Thermochemistry Energy Analysis <==

  Raw electronic energy, E0
  Total E0, Electronic energy at well bottom at 0 [K]                 -117.07044708 [Eh]

  Zero-point energy, ZPE_vib = Sum_i nu_i / 2
    Electronic ZPE          0.000 [kcal/mol]        0.000 [kJ/mol]       0.00000000 [Eh]
    Translational ZPE       0.000 [kcal/mol]        0.000 [kJ/mol]       0.00000000 [Eh]
    Rotational ZPE          0.000 [kcal/mol]        0.000 [kJ/mol]       0.00000000 [Eh]
    Vibrational ZPE        53.258 [kcal/mol]      222.833 [kJ/mol]       0.08487260 [Eh]       18627.383 [cm^-1]
  Correction ZPE           53.258 [kcal/mol]      222.833 [kJ/mol]       0.08487260 [Eh]       18627.383 [cm^-1]
  Total ZPE, Electronic energy at 0 [K]                               -116.98557448 [Eh]

  Thermal Energy, E (includes ZPE)
    Electronic E            0.000 [kcal/mol]        0.000 [kJ/mol]       0.00000000 [Eh]
    Translational E         0.889 [kcal/mol]        3.718 [kJ/mol]       0.00141628 [Eh]
    Rotational E            0.889 [kcal/mol]        3.718 [kJ/mol]       0.00141628 [Eh]
    Vibrational E          53.503 [kcal/mol]      223.858 [kJ/mol]       0.08526308 [Eh]
  Correction E             55.281 [kcal/mol]      231.295 [kJ/mol]       0.08809564 [Eh]
  Total E, Electronic energy at  298.15 [K]                           -116.98235144 [Eh]

  Enthalpy, H_trans = E_trans + k_B * T
    Electronic H            0.000 [kcal/mol]        0.000 [kJ/mol]       0.00000000 [Eh]
    Translational H         1.481 [kcal/mol]        6.197 [kJ/mol]       0.00236046 [Eh]
    Rotational H            0.889 [kcal/mol]        3.718 [kJ/mol]       0.00141628 [Eh]
    Vibrational H          53.503 [kcal/mol]      223.858 [kJ/mol]       0.08526308 [Eh]
  Correction H             55.873 [kcal/mol]      233.774 [kJ/mol]       0.08903982 [Eh]
  Total H, Enthalpy at  298.15 [K]                                    -116.98140726 [Eh]

  Gibbs free energy, G = H - T * S
    Electronic G            0.000 [kcal/mol]        0.000 [kJ/mol]       0.00000000 [Eh]
    Translational G        -9.591 [kcal/mol]      -40.128 [kJ/mol]      -0.01528380 [Eh]
    Rotational G           -5.581 [kcal/mol]      -23.350 [kJ/mol]      -0.00889370 [Eh]
    Vibrational G          53.206 [kcal/mol]      222.614 [kJ/mol]       0.08478912 [Eh]
  Correction G             38.034 [kcal/mol]      159.136 [kJ/mol]       0.06061162 [Eh]
  Total G, Free enthalpy at  298.15 [K]                               -117.00983545 [Eh]

*** Psi4 exiting successfully. Buy a developer a beer!
