                               Psi4 1.3.2 release

  ==> Input File <==

--------------------------------------------------------------------------
set basis  6-31G
molecule {
0 1
   O        0.00000        0.00000       -0.06797
   H        0.74903        0.00000        0.53936
   H       -0.74903        0.00000        0.53936
}
energy('CCSD')
frequencies('CCSD')

--------------------------------------------------------------------------

    Molecular point group: c2v
  Charge       = 0
  Multiplicity = 1
  Basis Set: 6-31G
    Blend: 6-31G
  @RHF Final Energy:   -75.98266724806510
    Total Energy =                        -75.9826672480650984
      * MP2 total energy                      =  -76.112303163512706
      * CCSD total energy                     =  -76.118859402109877
    Molecular point group: c2v
  Basis Set: 6-31G
    Blend: 6-31G
  @RHF Final Energy:   -75.98266724806507
    Total Energy =                        -75.9826672480650700
      * MP2 total energy                      =  -76.112303163566040
      * CCSD total energy                     =  -76.118859404033103
  Basis Set: 6-31G
    Blend: 6-31G
  @RHF Final Energy:   -75.98266724806506
    Total Energy =                        -75.9826672480650416
      * MP2 total energy                      =  -76.112303163566054
      * CCSD total energy                     =  -76.118859404563565
  Basis Set: 6-31G
    Blend: 6-31G
  @RHF Final Energy:   -75.98252814263296
    Total Energy =                        -75.9825281426329582
      * MP2 total energy                      =  -76.112293909387077
      * CCSD total energy                     =  -76.118854236526715
  @RHF Final Energy:   -75.98279982659002
    Total Energy =                        -75.9827998265900248
      * MP2 total energy                      =  -76.112306401560829
      * CCSD total energy                     =  -76.118858550027610
  @RHF Final Energy:   -75.98263639293829
    Total Energy =                        -75.9826363929382751
      * MP2 total energy                      =  -76.112148910150864
      * CCSD total energy                     =  -76.118701125574290
  @RHF Final Energy:   -75.98268749487065
    Total Energy =                        -75.9826874948706461
      * MP2 total energy                      =  -76.112446897858462
      * CCSD total energy                     =  -76.119007233097477
  Basis Set: 6-31G
    Blend: 6-31G
  @RHF Final Energy:   -75.98266727982629
    Total Energy =                        -75.9826672798262877
      * MP2 total energy                      =  -76.112303348895182
      * CCSD total energy                     =  -76.118859594943231
  Basis Set: 6-31G
    Blend: 6-31G
  @RHF Final Energy:   -75.98266256444865
    Total Energy =                        -75.9826625644486455
      * MP2 total energy                      =  -76.112298473886014
      * CCSD total energy                     =  -76.118854795070263
  Basis Set: 6-31G
    Blend: 6-31G
  @RHF Final Energy:   -75.98266467442249
    Total Energy =                        -75.9826646744225087
      * MP2 total energy                      =  -76.112300616760379
      * CCSD total energy                     =  -76.118856905738326
    Molecular point group: cs
  Charge       = 0
  Multiplicity = 1
  Basis Set: 6-31G
    Blend: 6-31G

    Orbital Energies [Eh]
    ---------------------

    Doubly Occupied:

       1Ap   -20.563714     2Ap    -1.355547     1App   -0.701681
       3Ap    -0.564609     4Ap    -0.502279

  @RHF Final Energy:   -75.98266702688471

   => Energetics <=

    Nuclear Repulsion Energy =              9.1334149976260051
    One-Electron Energy =                -122.8565034434972318
    Two-Electron Energy =                  37.7404214189865215
    Total Energy =                        -75.9826670268847124

  Dipole Moment: [D]
     X:     0.0000      Y:     0.0087      Z:     2.6761     Total:     2.6761

      * MP2 total energy                      =  -76.112303153381291
      * CCSD total energy                     =  -76.118859401036701
    Molecular point group: cs

    Geometry (in Bohr), charge = 0, multiplicity = 1:

       Center              X                  Y                   Z
    ------------   -----------------  -----------------  -----------------
         O            0.000000000000    -0.000418237476    -0.128443286339
         H            1.415461559752     0.003318866125     1.019244081436
         H           -1.415461559752     0.003318866125     1.019244081436

  -Total gradient:
     Atom            X                  Y                   Z
    ------   -----------------  -----------------  -----------------
       1        0.000000000000    -0.000001891773    -0.000580974953
       2       -0.021726480226     0.000000945886     0.000290487476
       3        0.021726480226     0.000000945886     0.000290487476

  Vibration                       1                   2                   6
  Freq [cm^-1]                634.3806i           503.9728i            86.4443
  Irrep                           A2                  B1                  B2
  Reduced mass [u]              1.0078              1.0470              1.1259
  Force const [mDyne/A]        -0.2390             -0.1567              0.0050

  Vibration                       7                   8                   9
  Freq [cm^-1]                1694.2442           3813.3012           3909.0605
  Irrep                           A1                  A1                  B1
  Reduced mass [u]              1.0877              1.0405              1.0808
  Force const [mDyne/A]         1.8396              8.9145              9.7303

  ==> Thermochemistry Components <==

  Entropy, S
    Electronic S            0.000 [cal/(mol K)]        0.000 [J/(mol K)]       0.00000000 [mEh/K] (multiplicity = 1)
    Translational S        34.608 [cal/(mol K)]      144.801 [J/(mol K)]       0.05515177 [mEh/K] (mol. weight = 18.0106 [u], P = 101325.00 [Pa])
    Rotational S           10.508 [cal/(mol K)]       43.968 [J/(mol K)]       0.01674635 [mEh/K] (symmetry no. = 2)
    Vibrational S           3.744 [cal/(mol K)]       15.665 [J/(mol K)]       0.00596660 [mEh/K]
  Total S                  48.861 [cal/(mol K)]      204.434 [J/(mol K)]       0.07786473 [mEh/K]
  Correction S              0.000 [cal/(mol K)]        0.000 [J/(mol K)]       0.00000000 [mEh/K]

  Constant volume heat capacity, Cv
    Electronic Cv           0.000 [cal/(mol K)]        0.000 [J/(mol K)]       0.00000000 [mEh/K]
    Translational Cv        2.981 [cal/(mol K)]       12.472 [J/(mol K)]       0.00475022 [mEh/K]
    Rotational Cv           2.981 [cal/(mol K)]       12.472 [J/(mol K)]       0.00475022 [mEh/K]
    Vibrational Cv          1.996 [cal/(mol K)]        8.351 [J/(mol K)]       0.00318090 [mEh/K]
  Total Cv                  7.958 [cal/(mol K)]       33.295 [J/(mol K)]       0.01268133 [mEh/K]
  Correction Cv             0.000 [cal/(mol K)]        0.000 [J/(mol K)]       0.00000000 [mEh/K]

  Constant pressure heat capacity, Cp
    Electronic Cp           0.000 [cal/(mol K)]        0.000 [J/(mol K)]       0.00000000 [mEh/K]
    Translational Cp        4.968 [cal/(mol K)]       20.786 [J/(mol K)]       0.00791703 [mEh/K]
    Rotational Cp           2.981 [cal/(mol K)]       12.472 [J/(mol K)]       0.00475022 [mEh/K]
    Vibrational Cp          1.996 [cal/(mol K)]        8.351 [J/(mol K)]       0.00318090 [mEh/K]
  Total Cp                  9.945 [cal/(mol K)]       41.609 [J/(mol K)]       0.01584814 [mEh/K]
  Correction Cp             0.000 [cal/(mol K)]        0.000 [J/(mol K)]       0.00000000 [mEh/K]

  ==> Thermochemistry Energy Analysis <==

  Raw electronic energy, E0
  Total E0, Electronic energy at well bottom at 0 [K]                  -76.11885940 [Eh]

  Zero-point energy, ZPE_vib = Sum_i nu_i / 2
    Electronic ZPE          0.000 [kcal/mol]        0.000 [kJ/mol]       0.00000000 [Eh]
    Translational ZPE       0.000 [kcal/mol]        0.000 [kJ/mol]       0.00000000 [Eh]
    Rotational ZPE          0.000 [kcal/mol]        0.000 [kJ/mol]       0.00000000 [Eh]
    Vibrational ZPE        13.585 [kcal/mol]       56.841 [kJ/mol]       0.02164954 [Eh]        4751.525 [cm^-1]
  Correction ZPE           13.585 [kcal/mol]       56.841 [kJ/mol]       0.02164954 [Eh]        4751.525 [cm^-1]
  Total ZPE, Electronic energy at 0 [K]                                -76.09720986 [Eh]

  Thermal Energy, E (includes ZPE)
    Electronic E            0.000 [kcal/mol]        0.000 [kJ/mol]       0.00000000 [Eh]
    Translational E         0.889 [kcal/mol]        3.718 [kJ/mol]       0.00141628 [Eh]
    Rotational E            0.889 [kcal/mol]        3.718 [kJ/mol]       0.00141628 [Eh]
    Vibrational E          14.064 [kcal/mol]       58.844 [kJ/mol]       0.02241262 [Eh]
  Correction E             15.842 [kcal/mol]       66.281 [kJ/mol]       0.02524517 [Eh]
  Total E, Electronic energy at  298.15 [K]                            -76.09361423 [Eh]

  Enthalpy, H_trans = E_trans + k_B * T
    Electronic H            0.000 [kcal/mol]        0.000 [kJ/mol]       0.00000000 [Eh]
    Translational H         1.481 [kcal/mol]        6.197 [kJ/mol]       0.00236046 [Eh]
    Rotational H            0.889 [kcal/mol]        3.718 [kJ/mol]       0.00141628 [Eh]
    Vibrational H          14.064 [kcal/mol]       58.844 [kJ/mol]       0.02241262 [Eh]
  Correction H             16.434 [kcal/mol]       68.760 [kJ/mol]       0.02618935 [Eh]
  Total H, Enthalpy at  298.15 [K]                                     -76.09267005 [Eh]

  Gibbs free energy, G = H - T * S
    Electronic G            0.000 [kcal/mol]        0.000 [kJ/mol]       0.00000000 [Eh]
    Translational G        -8.837 [kcal/mol]      -36.975 [kJ/mol]      -0.01408304 [Eh]
    Rotational G           -2.244 [kcal/mol]       -9.390 [kJ/mol]      -0.00357665 [Eh]
    Vibrational G          12.948 [kcal/mol]       54.174 [kJ/mol]       0.02063367 [Eh]
  Correction G              1.866 [kcal/mol]        7.808 [kJ/mol]       0.00297399 [Eh]
  Total G, Free enthalpy at  298.15 [K]                                -76.11588542 [Eh]

*** Psi4 exiting successfully. Buy a developer a beer!
