                               Psi4 1.3.2 release

  ==> Input File <==

--------------------------------------------------------------------------
set basis  6-31G
molecule {
0 1
   C        0.32153        0.81326        0.00000
   C       -0.86505       -0.12817        0.00000
   C        0.54353       -0.68508        0.00000
   H        0.53795        1.36069       -0.92039
   H        0.53795        1.36069        0.92039
   H       -1.44742       -0.21449        0.92034
   H       -1.44742       -0.21449       -0.92034
   H        0.90937       -1.14629       -0.92037
   H        0.90937       -1.14629        0.92037
}
energy('scf')
frequencies('scf')
--------------------------------------------------------------------------

    Molecular point group: cs
  Charge       = 0
  Multiplicity = 1
  Basis Set: 6-31G
    Blend: 6-31G
  Basis Set: (6-31G AUX)
    Blend: CC-PVDZ-JKFIT
  @DF-RHF Final Energy:  -117.00609560115183
    Total Energy =                       -117.0060956011518272
    Molecular point group: cs
  Basis Set: 6-31G
    Blend: 6-31G
  Basis Set: (6-31G AUX)
    Blend: CC-PVDZ-JKFIT
  @DF-RHF Final Energy:  -117.00609560205817
    Total Energy =                       -117.0060956020581671
  Basis Set: 6-31G
    Blend: 6-31G
  Basis Set: (6-31G AUX)
    Blend: CC-PVDZ-JKFIT

  -Total Gradient:
     Atom            X                  Y                   Z
    ------   -----------------  -----------------  -----------------
       1       -0.001548492351    -0.003916005744     0.000000000000
       2        0.004194878068     0.000626156504     0.000000000000
       3       -0.002618211858     0.003314128285     0.000000000000
       4        0.002223934796     0.005629249539    -0.013170113900
       5        0.002223934796     0.005629249539     0.013170113900
       6       -0.005997946686    -0.000892123269     0.013159184925
       7       -0.005997946686    -0.000892123269    -0.013159184925
       8        0.003759924961    -0.004749265791    -0.013165859285
       9        0.003759924961    -0.004749265791     0.013165859285

  Charge       = 0
  Multiplicity = 1
  Basis Set: 6-31G
    Blend: 6-31G
  Basis Set: (6-31G AUX)
    Blend: CC-PVDZ-JKFIT

    Orbital Energies [Eh]
    ---------------------

    Doubly Occupied:

       1Ap   -11.229673     2Ap   -11.228756     3Ap   -11.228751
       4Ap    -1.134538     5Ap    -0.813738     6Ap    -0.813732
       1App   -0.666963     7Ap    -0.620050     2App   -0.507779
       3App   -0.507764     8Ap    -0.416177     9Ap    -0.416169

  @DF-RHF Final Energy:  -117.00609560205847

   => Energetics <=

    Nuclear Repulsion Energy =             75.2814648090140253
    One-Electron Energy =                -305.4069393047872722
    Two-Electron Energy =                 113.1193788937147673
    Total Energy =                       -117.0060956020584655

  Dipole Moment: [D]
     X:    -0.0001      Y:    -0.0001      Z:     0.0000     Total:     0.0001

    Molecular point group: cs
  Basis Set: 6-31G
    Blend: 6-31G
  Basis Set: (6-31G AUX)
    Blend: CC-PVDZ-JKFIT
  Basis Set: (6-31G AUX)
    Blend: CC-PVDZ-JKFIT
    Molecular point group: cs

    Geometry (in Angstrom), charge = 0, multiplicity = 1:

       Center              X                  Y                   Z               Mass
    ------------   -----------------  -----------------  -----------------  -----------------
         C            0.321531939855     0.813261460475     0.000000000000    12.000000000000
         C           -0.865048060145    -0.128168539525     0.000000000000    12.000000000000
         C            0.543531939855    -0.685078539525     0.000000000000    12.000000000000
         H            0.537951939855     1.360691460475    -0.920390000000     1.007825032230
         H            0.537951939855     1.360691460475     0.920390000000     1.007825032230
         H           -1.447418060145    -0.214488539525     0.920340000000     1.007825032230
         H           -1.447418060145    -0.214488539525    -0.920340000000     1.007825032230
         H            0.909371939855    -1.146288539525    -0.920370000000     1.007825032230
         H            0.909371939855    -1.146288539525     0.920370000000     1.007825032230

  Basis Set: 6-31G
    Blend: 6-31G
  Basis Set: (6-31G AUX)
    Blend: CC-PVDZ-JKFIT

  Vibration                       7                   8                   9
  Freq [cm^-1]                 929.4033            929.4394            934.8532
  Irrep                           Ap                  Ap                 App
  Reduced mass [u]              4.0755              4.0757              1.0200
  Force const [mDyne/A]         2.0742              2.0744              0.5252

  IR activ [km/mol]            30.0465             30.0370              0.0000

  Vibration                       10                  11                  12
  Freq [cm^-1]                 934.8540           1021.9421           1267.9930
  Irrep                          App                 App                  Ap
  Reduced mass [u]              1.0200              1.0449              3.2350
  Force const [mDyne/A]         0.5252              0.6429              3.0645

  IR activ [km/mol]             0.0000              0.0142              0.0000

  Vibration                       13                  14                  15
  Freq [cm^-1]                1273.3552           1273.3629           1313.5313
  Irrep                           Ap                  Ap                 App
  Reduced mass [u]              1.2262              1.2262              1.0078
  Force const [mDyne/A]         1.1714              1.1715              1.0245

  IR activ [km/mol]            11.5125             11.5100              0.0000

  Vibration                       16                  17                  18
  Freq [cm^-1]                1328.5569           1373.4983           1373.5034
  Irrep                           Ap                 App                 App
  Reduced mass [u]              1.4254              1.4571              1.4571
  Force const [mDyne/A]         1.4824              1.6196              1.6196

  IR activ [km/mol]             0.0000              0.0000              0.0000

  Vibration                       19                  20                  21
  Freq [cm^-1]                1647.1541           1647.1767           1684.4182
  Irrep                           Ap                  Ap                  Ap
  Reduced mass [u]              1.0904              1.0904              1.2183
  Force const [mDyne/A]         1.7430              1.7431              2.0366

  IR activ [km/mol]             1.7666              1.7676              0.0000

  Vibration                       22                  23                  24
  Freq [cm^-1]                3125.9390           3125.9576           3142.0023
  Irrep                           Ap                  Ap                  Ap
  Reduced mass [u]              1.0511              1.0511              1.0663
  Force const [mDyne/A]         6.0514              6.0515              6.2019

  IR activ [km/mol]            31.7293             31.7335              0.0000

  Vibration                       25                  26                  27
  Freq [cm^-1]                3201.4660           3201.4793           3227.3882
  Irrep                          App                 App                 App
  Reduced mass [u]              1.1180              1.1180              1.1152
  Force const [mDyne/A]         6.7513              6.7514              6.8438

  IR activ [km/mol]             0.0000              0.0000             53.7275

  ==> Thermochemistry Components <==

  Entropy, S
    Electronic S            0.000 [cal/(mol K)]        0.000 [J/(mol K)]       0.00000000 [mEh/K] (multiplicity = 1)
    Translational S        37.135 [cal/(mol K)]      155.375 [J/(mol K)]       0.05917914 [mEh/K] (mol. weight = 42.0470 [u], P = 101325.00 [Pa])
    Rotational S           21.699 [cal/(mol K)]       90.789 [J/(mol K)]       0.03457982 [mEh/K] (symmetry no. = 1)
    Vibrational S           0.777 [cal/(mol K)]        3.253 [J/(mol K)]       0.00123882 [mEh/K]
  Total S                  59.612 [cal/(mol K)]      249.417 [J/(mol K)]       0.09499778 [mEh/K]
  Correction S              0.000 [cal/(mol K)]        0.000 [J/(mol K)]       0.00000000 [mEh/K]

  Constant volume heat capacity, Cv
    Electronic Cv           0.000 [cal/(mol K)]        0.000 [J/(mol K)]       0.00000000 [mEh/K]
    Translational Cv        2.981 [cal/(mol K)]       12.472 [J/(mol K)]       0.00475022 [mEh/K]
    Rotational Cv           2.981 [cal/(mol K)]       12.472 [J/(mol K)]       0.00475022 [mEh/K]
    Vibrational Cv          3.308 [cal/(mol K)]       13.840 [J/(mol K)]       0.00527141 [mEh/K]
  Total Cv                  9.269 [cal/(mol K)]       38.783 [J/(mol K)]       0.01477184 [mEh/K]
  Correction Cv             0.000 [cal/(mol K)]        0.000 [J/(mol K)]       0.00000000 [mEh/K]

  Constant pressure heat capacity, Cp
    Electronic Cp           0.000 [cal/(mol K)]        0.000 [J/(mol K)]       0.00000000 [mEh/K]
    Translational Cp        4.968 [cal/(mol K)]       20.786 [J/(mol K)]       0.00791703 [mEh/K]
    Rotational Cp           2.981 [cal/(mol K)]       12.472 [J/(mol K)]       0.00475022 [mEh/K]
    Vibrational Cp          3.308 [cal/(mol K)]       13.840 [J/(mol K)]       0.00527141 [mEh/K]
  Total Cp                 11.257 [cal/(mol K)]       47.098 [J/(mol K)]       0.01793865 [mEh/K]
  Correction Cp             0.000 [cal/(mol K)]        0.000 [J/(mol K)]       0.00000000 [mEh/K]

  ==> Thermochemistry Energy Analysis <==

  Raw electronic energy, E0
  Total E0, Electronic energy at well bottom at 0 [K]                 -117.00609560 [Eh]

  Zero-point energy, ZPE_vib = Sum_i nu_i / 2
    Electronic ZPE          0.000 [kcal/mol]        0.000 [kJ/mol]       0.00000000 [Eh]
    Translational ZPE       0.000 [kcal/mol]        0.000 [kJ/mol]       0.00000000 [Eh]
    Rotational ZPE          0.000 [kcal/mol]        0.000 [kJ/mol]       0.00000000 [Eh]
    Vibrational ZPE        54.263 [kcal/mol]      227.035 [kJ/mol]       0.08647303 [Eh]       18978.637 [cm^-1]
  Correction ZPE           54.263 [kcal/mol]      227.035 [kJ/mol]       0.08647303 [Eh]       18978.637 [cm^-1]
  Total ZPE, Electronic energy at 0 [K]                               -116.91962257 [Eh]

  Thermal Energy, E (includes ZPE)
    Electronic E            0.000 [kcal/mol]        0.000 [kJ/mol]       0.00000000 [Eh]
    Translational E         0.889 [kcal/mol]        3.718 [kJ/mol]       0.00141628 [Eh]
    Rotational E            0.889 [kcal/mol]        3.718 [kJ/mol]       0.00141628 [Eh]
    Vibrational E          54.456 [kcal/mol]      227.842 [kJ/mol]       0.08678048 [Eh]
  Correction E             56.233 [kcal/mol]      235.279 [kJ/mol]       0.08961303 [Eh]
  Total E, Electronic energy at  298.15 [K]                           -116.91648257 [Eh]

  Enthalpy, H_trans = E_trans + k_B * T
    Electronic H            0.000 [kcal/mol]        0.000 [kJ/mol]       0.00000000 [Eh]
    Translational H         1.481 [kcal/mol]        6.197 [kJ/mol]       0.00236046 [Eh]
    Rotational H            0.889 [kcal/mol]        3.718 [kJ/mol]       0.00141628 [Eh]
    Vibrational H          54.456 [kcal/mol]      227.842 [kJ/mol]       0.08678048 [Eh]
  Correction H             56.826 [kcal/mol]      237.758 [kJ/mol]       0.09055721 [Eh]
  Total H, Enthalpy at  298.15 [K]                                    -116.91553839 [Eh]

  Gibbs free energy, G = H - T * S
    Electronic G            0.000 [kcal/mol]        0.000 [kJ/mol]       0.00000000 [Eh]
    Translational G        -9.591 [kcal/mol]      -40.128 [kJ/mol]      -0.01528380 [Eh]
    Rotational G           -5.581 [kcal/mol]      -23.350 [kJ/mol]      -0.00889370 [Eh]
    Vibrational G          54.224 [kcal/mol]      226.872 [kJ/mol]       0.08641112 [Eh]
  Correction G             39.052 [kcal/mol]      163.394 [kJ/mol]       0.06223363 [Eh]
  Total G, Free enthalpy at  298.15 [K]                               -116.94386198 [Eh]

*** Psi4 exiting successfully. Buy a developer a beer!
