                               Psi4 1.3.2 release

  ==> Input File <==

--------------------------------------------------------------------------
set basis  aug-cc-pVTZ
molecule {
0 1
   C       -0.61446        0.00000        0.00000
   C        0.61446        0.00000        0.00000
   H       -1.68923        0.00000        0.00000
   H        1.68923        0.00000        0.00000
}
energy('B3LYP')
frequencies('B3LYP')
--------------------------------------------------------------------------

    Molecular point group: d2h
  Charge       = 0
  Multiplicity = 1
  Basis Set: AUG-CC-PVTZ
    Blend: AUG-CC-PVTZ
  Basis Set: (AUG-CC-PVTZ AUX)
    Blend: AUG-CC-PVTZ-JKFIT
  @DF-RKS Final Energy:   -77.36234364599747
    Total Energy =                        -77.3623436459974840
    Molecular point group: d2h
  Basis Set: AUG-CC-PVTZ
    Blend: AUG-CC-PVTZ
  Basis Set: (AUG-CC-PVTZ AUX)
    Blend: AUG-CC-PVTZ-JKFIT
  @DF-RKS Final Energy:   -77.36234364724166
    Total Energy =                        -77.3623436472416586
  Basis Set: AUG-CC-PVTZ
    Blend: AUG-CC-PVTZ
  Basis Set: (AUG-CC-PVTZ AUX)
    Blend: AUG-CC-PVTZ-JKFIT
  Basis Set: AUG-CC-PVTZ
    Blend: AUG-CC-PVTZ
  Basis Set: (AUG-CC-PVTZ AUX)
    Blend: AUG-CC-PVTZ-JKFIT
  @DF-RKS Final Energy:   -77.36234364724166
    Total Energy =                        -77.3623436472416586
  Basis Set: AUG-CC-PVTZ
  @DF-RKS Final Energy:   -77.36223328378728
    Total Energy =                        -77.3622332837872762
  @DF-RKS Final Energy:   -77.36244930885223
    Total Energy =                        -77.3624493088522343
  @DF-RKS Final Energy:   -77.36227252791360
    Total Energy =                        -77.3622725279136034
  @DF-RKS Final Energy:   -77.36240530307536
    Total Energy =                        -77.3624053030753629
  @DF-RKS Final Energy:   -77.36234352337090
    Total Energy =                        -77.3623435233709102
  @DF-RKS Final Energy:   -77.36234348993544
    Total Energy =                        -77.3623434899354407
  @DF-RKS Final Energy:   -77.36234352339636
    Total Energy =                        -77.3623435233963619
  @DF-RKS Final Energy:   -77.36234349000587
    Total Energy =                        -77.3623434900058697
  @DF-RKS Final Energy:   -77.36234332481915
    Total Energy =                        -77.3623433248191503
  Basis Set: (AUG-CC-PVTZ AUX)
    Blend: AUG-CC-PVTZ-JKFIT
  Basis Set: AUG-CC-PVTZ
    Blend: AUG-CC-PVTZ
  Basis Set: (AUG-CC-PVTZ AUX)
    Blend: AUG-CC-PVTZ-JKFIT
  @DF-RKS Final Energy:   -77.36234332489252
    Total Energy =                        -77.3623433248925210
  Basis Set: AUG-CC-PVTZ
    Blend: AUG-CC-PVTZ
  Basis Set: (AUG-CC-PVTZ AUX)
    Blend: AUG-CC-PVTZ-JKFIT
    Molecular point group: c2v
  Charge       = 0
  Multiplicity = 1
  Basis Set: AUG-CC-PVTZ
    Blend: AUG-CC-PVTZ
  Basis Set: (AUG-CC-PVTZ AUX)
    Blend: AUG-CC-PVTZ-JKFIT

    Orbital Energies [Eh]
    ---------------------

    Doubly Occupied:

       1A1   -10.196099     2A1   -10.194046     3A1    -0.754555
       4A1    -0.574888     5A1    -0.502204     1B2    -0.297174
       1B1    -0.297174

  @DF-RKS Final Energy:   -77.36233852698612

   => Energetics <=

    Nuclear Repulsion Energy =             24.3232393838559098
    One-Electron Energy =                -151.0564558426094379
    Two-Electron Energy =                  58.6487811111193693
    DFT Exchange-Correlation Energy =      -9.2779031793519504
    Empirical Dispersion Energy =           0.0000000000000000
    VV10 Nonlocal Energy =                  0.0000000000000000
    Total Energy =                        -77.3623385269861075

  Dipole Moment: [D]
     X:     0.0040      Y:     0.0000      Z:     0.0000     Total:     0.0040

    Molecular point group: c2v

    Geometry (in Angstrom), charge = 0, multiplicity = 1:

       Center              X                  Y                   Z               Mass
    ------------   -----------------  -----------------  -----------------  -----------------
         C           -0.614610333491     0.000000000000     0.000000000000    12.000000000000
         C            0.614309666509     0.000000000000     0.000000000000    12.000000000000
         H           -1.687440004874     0.000000000000     0.000000000000     1.007825032230
         H            1.691019995126     0.000000000000     0.000000000000     1.007825032230

  Basis Set: AUG-CC-PVTZ
    Blend: AUG-CC-PVTZ
  Basis Set: (AUG-CC-PVTZ AUX)
    Blend: AUG-CC-PVTZ-JKFIT

  -Total Gradient:
     Atom            X                  Y                   Z
    ------   -----------------  -----------------  -----------------
       1       -0.054319573291     0.000000000000     0.000000000000
       2        0.051526625545     0.000000000000     0.000000000000
       3       -0.008023155563     0.000000000000     0.000000000000
       4        0.010816115008     0.000000000000     0.000000000000

  Vibration                       4                   5                   6
  Freq [cm^-1]                 301.9217            301.9218            708.9961
  Irrep                          B2g                 B1g                 B2g
  Reduced mass [u]              2.1725              2.1726              1.6253
  Force const [mDyne/A]         0.1167              0.1167              0.4814

  Vibration                       7                   8                   9
  Freq [cm^-1]                 708.9966            825.6869            825.6869
  Irrep                          B1g                 B1u                 B2u
  Reduced mass [u]              1.6253              1.0848              1.0848
  Force const [mDyne/A]         0.4814              0.4357              0.4357

  Vibration                       10                  11                  12
  Freq [cm^-1]                1889.0662           3290.0583           3376.9984
  Irrep                           Ag                 B3u                  Ag
  Reduced mass [u]              4.0671              1.0848              1.2053
  Force const [mDyne/A]         8.5513              6.9185              8.0983

  ==> Thermochemistry Components <==

  Entropy, S
    Electronic S            0.000 [cal/(mol K)]        0.000 [J/(mol K)]       0.00000000 [mEh/K] (multiplicity = 1)
    Translational S        35.704 [cal/(mol K)]      149.387 [J/(mol K)]       0.05689862 [mEh/K] (mol. weight = 26.0157 [u], P = 101325.00 [Pa])
    Rotational S           10.952 [cal/(mol K)]       45.824 [J/(mol K)]       0.01745345 [mEh/K] (symmetry no. = 2)
    Vibrational S           3.781 [cal/(mol K)]       15.818 [J/(mol K)]       0.00602487 [mEh/K]
  Total S                  50.437 [cal/(mol K)]      211.030 [J/(mol K)]       0.08037693 [mEh/K]
  Correction S              0.000 [cal/(mol K)]        0.000 [J/(mol K)]       0.00000000 [mEh/K]

  Constant volume heat capacity, Cv
    Electronic Cv           0.000 [cal/(mol K)]        0.000 [J/(mol K)]       0.00000000 [mEh/K]
    Translational Cv        2.981 [cal/(mol K)]       12.472 [J/(mol K)]       0.00475022 [mEh/K]
    Rotational Cv           1.987 [cal/(mol K)]        8.314 [J/(mol K)]       0.00316681 [mEh/K]
    Vibrational Cv          6.201 [cal/(mol K)]       25.946 [J/(mol K)]       0.00988226 [mEh/K]
  Total Cv                 11.169 [cal/(mol K)]       46.732 [J/(mol K)]       0.01779929 [mEh/K]
  Correction Cv             0.000 [cal/(mol K)]        0.000 [J/(mol K)]       0.00000000 [mEh/K]

  Constant pressure heat capacity, Cp
    Electronic Cp           0.000 [cal/(mol K)]        0.000 [J/(mol K)]       0.00000000 [mEh/K]
    Translational Cp        4.968 [cal/(mol K)]       20.786 [J/(mol K)]       0.00791703 [mEh/K]
    Rotational Cp           1.987 [cal/(mol K)]        8.314 [J/(mol K)]       0.00316681 [mEh/K]
    Vibrational Cp          6.201 [cal/(mol K)]       25.946 [J/(mol K)]       0.00988226 [mEh/K]
  Total Cp                 13.156 [cal/(mol K)]       55.046 [J/(mol K)]       0.02096610 [mEh/K]
  Correction Cp             0.000 [cal/(mol K)]        0.000 [J/(mol K)]       0.00000000 [mEh/K]

  ==> Thermochemistry Energy Analysis <==

  Raw electronic energy, E0
  Total E0, Electronic energy at well bottom at 0 [K]                  -77.36234365 [Eh]

  Zero-point energy, ZPE_vib = Sum_i nu_i / 2
    Electronic ZPE          0.000 [kcal/mol]        0.000 [kJ/mol]       0.00000000 [Eh]
    Translational ZPE       0.000 [kcal/mol]        0.000 [kJ/mol]       0.00000000 [Eh]
    Rotational ZPE          0.000 [kcal/mol]        0.000 [kJ/mol]       0.00000000 [Eh]
    Vibrational ZPE        17.483 [kcal/mol]       73.148 [kJ/mol]       0.02786047 [Eh]        6114.666 [cm^-1]
  Correction ZPE           17.483 [kcal/mol]       73.148 [kJ/mol]       0.02786047 [Eh]        6114.666 [cm^-1]
  Total ZPE, Electronic energy at 0 [K]                                -77.33448318 [Eh]

  Thermal Energy, E (includes ZPE)
    Electronic E            0.000 [kcal/mol]        0.000 [kJ/mol]       0.00000000 [Eh]
    Translational E         0.889 [kcal/mol]        3.718 [kJ/mol]       0.00141628 [Eh]
    Rotational E            0.592 [kcal/mol]        2.479 [kJ/mol]       0.00094418 [Eh]
    Vibrational E          18.234 [kcal/mol]       76.291 [kJ/mol]       0.02905773 [Eh]
  Correction E             19.715 [kcal/mol]       82.488 [kJ/mol]       0.03141819 [Eh]
  Total E, Electronic energy at  298.15 [K]                            -77.33092546 [Eh]

  Enthalpy, H_trans = E_trans + k_B * T
    Electronic H            0.000 [kcal/mol]        0.000 [kJ/mol]       0.00000000 [Eh]
    Translational H         1.481 [kcal/mol]        6.197 [kJ/mol]       0.00236046 [Eh]
    Rotational H            0.592 [kcal/mol]        2.479 [kJ/mol]       0.00094418 [Eh]
    Vibrational H          18.234 [kcal/mol]       76.291 [kJ/mol]       0.02905773 [Eh]
  Correction H             20.308 [kcal/mol]       84.967 [kJ/mol]       0.03236238 [Eh]
  Total H, Enthalpy at  298.15 [K]                                     -77.32998127 [Eh]

  Gibbs free energy, G = H - T * S
    Electronic G            0.000 [kcal/mol]        0.000 [kJ/mol]       0.00000000 [Eh]
    Translational G        -9.164 [kcal/mol]      -38.342 [kJ/mol]      -0.01460386 [Eh]
    Rotational G           -2.673 [kcal/mol]      -11.183 [kJ/mol]      -0.00425956 [Eh]
    Vibrational G          17.107 [kcal/mol]       71.575 [kJ/mol]       0.02726142 [Eh]
  Correction G              5.270 [kcal/mol]       22.049 [kJ/mol]       0.00839799 [Eh]
  Total G, Free enthalpy at  298.15 [K]                                -77.35394565 [Eh]

*** Psi4 exiting successfully. Buy a developer a beer!
