                               Psi4 1.3.2 release

  ==> Input File <==

--------------------------------------------------------------------------
set basis  cc-pVTZ
molecule {
0 1
   O        0.00000        0.00000        0.49152
   C        0.00000        0.00000       -0.65516
}
energy('MP2')
frequencies('MP2')
--------------------------------------------------------------------------

    Molecular point group: c2v
  Charge       = 0
  Multiplicity = 1
  Basis Set: CC-PVTZ
    Blend: CC-PVTZ
  Basis Set: (CC-PVTZ AUX)
    Blend: CC-PVTZ-JKFIT
  @DF-RHF Final Energy:  -112.77726368223206
    Total Energy =                       -112.7772636822320607
  Basis Set: (CC-PVTZ AUX)
    Blend: CC-PVTZ-RI
	 Reference Energy          =    -112.7772636822320607 [Eh]
	 Singles Energy            =      -0.0000000000000000 [Eh]
	 Same-Spin Energy          =      -0.0958385869082116 [Eh]
	 Opposite-Spin Energy      =      -0.2867689045359335 [Eh]
	 Correlation Energy        =      -0.3826074914441451 [Eh]
	 Total Energy              =    -113.1598711736762084 [Eh]
	 SCS Total Energy          =    -113.1533325633112526 [Eh]
    Molecular point group: c2v
  Basis Set: CC-PVTZ
    Blend: CC-PVTZ
  Basis Set: (CC-PVTZ AUX)
    Blend: CC-PVTZ-JKFIT
  @DF-RHF Final Energy:  -112.77726368223207
    Total Energy =                       -112.7772636822320749
  Basis Set: (CC-PVTZ AUX)
  @DF-RHF Final Energy:  -112.77726368223207
    Total Energy =                       -112.7772636822320749
  @DF-RHF Final Energy:  -112.77746319171480
    Total Energy =                       -112.7774631917148014
  @DF-RHF Final Energy:  -112.77706001002151
    Total Energy =                       -112.7770600100215148
  @DF-RHF Final Energy:  -112.77726359341159
    Total Energy =                       -112.7772635934115897
    Molecular point group: cs
  Charge       = 0
  Multiplicity = 1
  Basis Set: CC-PVTZ
    Blend: CC-PVTZ
  Basis Set: (CC-PVTZ AUX)
    Blend: CC-PVTZ-JKFIT

    Orbital Energies [Eh]
    ---------------------

    Doubly Occupied:

       1Ap   -20.666447     2Ap   -11.367935     3Ap    -1.508587
       4Ap    -0.801991     5Ap    -0.631015     1App   -0.631015
       6Ap    -0.555628

  @DF-RHF Final Energy:  -112.77726359340285

   => Energetics <=

    Nuclear Repulsion Energy =             22.1513379928885605
    One-Electron Energy =                -197.5319686222126734
    Two-Electron Energy =                  62.6033670359212664
    Total Energy =                       -112.7772635934028500

  Dipole Moment: [D]
     X:     0.0000      Y:     0.0003      Z:    -0.3360     Total:     0.3360

  Basis Set: (CC-PVTZ AUX)
    Blend: CC-PVTZ-RI
    Molecular point group: cs

    Geometry (in Angstrom), charge = 0, multiplicity = 1:

       Center              X                  Y                   Z               Mass
    ------------   -----------------  -----------------  -----------------  -----------------
         O            0.000000000000    -0.000433142923     0.491523556581    15.994914619570
         C            0.000000000000     0.000577340340    -0.655156443419    12.000000000000

  Basis Set: CC-PVTZ
    Blend: CC-PVTZ
  Basis Set: (CC-PVTZ AUX)
    Blend: CC-PVTZ-JKFIT
  Basis Set: (CC-PVTZ AUX)
    Blend: CC-PVTZ-JKFIT
	 Reference Energy          =    -112.7772635934028500 [Eh]
	 Singles Energy            =      -0.0000000000000000 [Eh]
	 Same-Spin Energy          =      -0.0958386079991116 [Eh]
	 Opposite-Spin Energy      =      -0.2867689521017237 [Eh]
	 Correlation Energy        =      -0.3826075601008353 [Eh]
	 Total Energy              =    -113.1598711535036870 [Eh]

	 ================> DF-SCS-MP2 Energies <==================
	-----------------------------------------------------------
	 SCS Same-Spin Scale       =       0.3333333333333333 [-]
	 SCS Opposite-Spin Scale   =       1.2000000000000000 [-]
	 SCS Same-Spin Energy      =      -0.0319462026663705 [Eh]
	 SCS Opposite-Spin Energy  =      -0.3441227425220684 [Eh]
	 SCS Correlation Energy    =      -0.3760689451884389 [Eh]
	 SCS Total Energy          =    -113.1533325385912860 [Eh]
	-----------------------------------------------------------

  -Total Gradient:
     Atom            X                  Y                   Z
    ------   -----------------  -----------------  -----------------
       1        0.000000000000    -0.000021449702     0.024340773970
       2        0.000000000000     0.000021449702    -0.024340773970

  Vibration                       4                   5                   6
  Freq [cm^-1]                 208.0697            208.0697           2052.6678
  Irrep                           B1                  B2                  A1
  Reduced mass [u]             13.4388             13.4388             13.4388
  Force const [mDyne/A]         0.3428              0.3428             33.3616

  ==> Thermochemistry Components <==

  Entropy, S
    Electronic S            0.000 [cal/(mol K)]        0.000 [J/(mol K)]       0.00000000 [mEh/K] (multiplicity = 1)
    Translational S        35.923 [cal/(mol K)]      150.302 [J/(mol K)]       0.05724692 [mEh/K] (mol. weight = 27.9949 [u], P = 101325.00 [Pa])
    Rotational S           11.343 [cal/(mol K)]       47.458 [J/(mol K)]       0.01807582 [mEh/K] (symmetry no. = 1)
    Vibrational S           4.122 [cal/(mol K)]       17.247 [J/(mol K)]       0.00656909 [mEh/K]
  Total S                  51.388 [cal/(mol K)]      215.007 [J/(mol K)]       0.08189184 [mEh/K]
  Correction S              0.000 [cal/(mol K)]        0.000 [J/(mol K)]       0.00000000 [mEh/K]

  Constant volume heat capacity, Cv
    Electronic Cv           0.000 [cal/(mol K)]        0.000 [J/(mol K)]       0.00000000 [mEh/K]
    Translational Cv        2.981 [cal/(mol K)]       12.472 [J/(mol K)]       0.00475022 [mEh/K]
    Rotational Cv           1.987 [cal/(mol K)]        8.314 [J/(mol K)]       0.00316681 [mEh/K]
    Vibrational Cv          3.666 [cal/(mol K)]       15.340 [J/(mol K)]       0.00584280 [mEh/K]
  Total Cv                  8.634 [cal/(mol K)]       36.126 [J/(mol K)]       0.01375982 [mEh/K]
  Correction Cv             0.000 [cal/(mol K)]        0.000 [J/(mol K)]       0.00000000 [mEh/K]

  Constant pressure heat capacity, Cp
    Electronic Cp           0.000 [cal/(mol K)]        0.000 [J/(mol K)]       0.00000000 [mEh/K]
    Translational Cp        4.968 [cal/(mol K)]       20.786 [J/(mol K)]       0.00791703 [mEh/K]
    Rotational Cp           1.987 [cal/(mol K)]        8.314 [J/(mol K)]       0.00316681 [mEh/K]
    Vibrational Cp          3.666 [cal/(mol K)]       15.340 [J/(mol K)]       0.00584280 [mEh/K]
  Total Cp                 10.622 [cal/(mol K)]       44.441 [J/(mol K)]       0.01692663 [mEh/K]
  Correction Cp             0.000 [cal/(mol K)]        0.000 [J/(mol K)]       0.00000000 [mEh/K]

  ==> Thermochemistry Energy Analysis <==

  Raw electronic energy, E0
  Total E0, Electronic energy at well bottom at 0 [K]                 -113.15987117 [Eh]

  Zero-point energy, ZPE_vib = Sum_i nu_i / 2
    Electronic ZPE          0.000 [kcal/mol]        0.000 [kJ/mol]       0.00000000 [Eh]
    Translational ZPE       0.000 [kcal/mol]        0.000 [kJ/mol]       0.00000000 [Eh]
    Rotational ZPE          0.000 [kcal/mol]        0.000 [kJ/mol]       0.00000000 [Eh]
    Vibrational ZPE         3.529 [kcal/mol]       14.767 [kJ/mol]       0.00562436 [Eh]        1234.404 [cm^-1]
  Correction ZPE            3.529 [kcal/mol]       14.767 [kJ/mol]       0.00562436 [Eh]        1234.404 [cm^-1]
  Total ZPE, Electronic energy at 0 [K]                               -113.15424682 [Eh]

  Thermal Energy, E (includes ZPE)
    Electronic E            0.000 [kcal/mol]        0.000 [kJ/mol]       0.00000000 [Eh]
    Translational E         0.889 [kcal/mol]        3.718 [kJ/mol]       0.00141628 [Eh]
    Rotational E            0.592 [kcal/mol]        2.479 [kJ/mol]       0.00094418 [Eh]
    Vibrational E           4.218 [kcal/mol]       17.647 [kJ/mol]       0.00672120 [Eh]
  Correction E              5.699 [kcal/mol]       23.844 [kJ/mol]       0.00908167 [Eh]
  Total E, Electronic energy at  298.15 [K]                           -113.15078951 [Eh]

  Enthalpy, H_trans = E_trans + k_B * T
    Electronic H            0.000 [kcal/mol]        0.000 [kJ/mol]       0.00000000 [Eh]
    Translational H         1.481 [kcal/mol]        6.197 [kJ/mol]       0.00236046 [Eh]
    Rotational H            0.592 [kcal/mol]        2.479 [kJ/mol]       0.00094418 [Eh]
    Vibrational H           4.218 [kcal/mol]       17.647 [kJ/mol]       0.00672120 [Eh]
  Correction H              6.291 [kcal/mol]       26.323 [kJ/mol]       0.01002585 [Eh]
  Total H, Enthalpy at  298.15 [K]                                    -113.14984532 [Eh]

  Gibbs free energy, G = H - T * S
    Electronic G            0.000 [kcal/mol]        0.000 [kJ/mol]       0.00000000 [Eh]
    Translational G        -9.229 [kcal/mol]      -38.615 [kJ/mol]      -0.01470771 [Eh]
    Rotational G           -2.789 [kcal/mol]      -11.671 [kJ/mol]      -0.00444512 [Eh]
    Vibrational G           2.989 [kcal/mol]       12.504 [kJ/mol]       0.00476263 [Eh]
  Correction G             -9.030 [kcal/mol]      -37.781 [kJ/mol]      -0.01439020 [Eh]
  Total G, Free enthalpy at  298.15 [K]                               -113.17426138 [Eh]

*** Psi4 exiting successfully. Buy a developer a beer!
