                               Psi4 1.3.2 release

  ==> Input File <==

--------------------------------------------------------------------------
set basis  6-31+G*
molecule {
0 1
   C        0.32153        0.81326        0.00000
   C       -0.86505       -0.12817        0.00000
   C        0.54353       -0.68508        0.00000
   H        0.53795        1.36069       -0.92039
   H        0.53795        1.36069        0.92039
   H       -1.44742       -0.21449        0.92034
   H       -1.44742       -0.21449       -0.92034
   H        0.90937       -1.14629       -0.92037
   H        0.90937       -1.14629        0.92037
}
energy('MP2')
frequencies('MP2')
--------------------------------------------------------------------------

    Molecular point group: cs
  Charge       = 0
  Multiplicity = 1
  Basis Set: 6-31+G*
    Blend: 6-31+G*
  Basis Set: (6-31+G* AUX)
    Blend: HEAVY-AUG-CC-PVDZ-JKFIT
  @DF-RHF Final Energy:  -117.05925753875900
    Total Energy =                       -117.0592575387589989
  Basis Set: (6-31+G* AUX)
    Blend: HEAVY-AUG-CC-PVDZ-RI
	 Reference Energy          =    -117.0592575387589989 [Eh]
	 Singles Energy            =      -0.0000000000000000 [Eh]
	 Same-Spin Energy          =      -0.0973352673191536 [Eh]
	 Opposite-Spin Energy      =      -0.3122784688027548 [Eh]
	 Correlation Energy        =      -0.4096137361219084 [Eh]
	 Total Energy              =    -117.4688712748809110 [Eh]
	 SCS Total Energy          =    -117.4664367904286877 [Eh]
    Molecular point group: cs
  Basis Set: 6-31+G*
    Blend: 6-31+G*
  Basis Set: (6-31+G* AUX)
    Blend: HEAVY-AUG-CC-PVDZ-JKFIT
  @DF-RHF Final Energy:  -117.05925753892082
    Total Energy =                       -117.0592575389208179
  Basis Set: (6-31+G* AUX)
  @DF-RHF Final Energy:  -117.05925753892082
    Total Energy =                       -117.0592575389208179
  @DF-RHF Final Energy:  -117.05925945397736
    Total Energy =                       -117.0592594539773614
  @DF-RHF Final Energy:  -117.05925434934416
    Total Energy =                       -117.0592543493441582
  @DF-RHF Final Energy:  -117.05926197985963
    Total Energy =                       -117.0592619798596274
  @DF-RHF Final Energy:  -117.05925130665254
    Total Energy =                       -117.0592513066525413
  @DF-RHF Final Energy:  -117.05925102377856
    Total Energy =                       -117.0592510237785575
  @DF-RHF Final Energy:  -117.05926194271679
    Total Energy =                       -117.0592619427167875
  @DF-RHF Final Energy:  -117.05925787158866
    Total Energy =                       -117.0592578715886560
  @DF-RHF Final Energy:  -117.05925557502617
    Total Energy =                       -117.0592555750261710
  @DF-RHF Final Energy:  -117.05925821413419
    Total Energy =                       -117.0592582141341893
  @DF-RHF Final Energy:  -117.05925431009587
    Total Energy =                       -117.0592543100958665
  @DF-RHF Final Energy:  -117.05925408752813
    Total Energy =                       -117.0592540875281315
  @DF-RHF Final Energy:  -117.05925832965434
    Total Energy =                       -117.0592583296543410
  @DF-RHF Final Energy:  -117.05928067875396
    Total Energy =                       -117.0592806787539644
  @DF-RHF Final Energy:  -117.05923157211780
    Total Energy =                       -117.0592315721177954
  @DF-RHF Final Energy:  -117.05929982946361
    Total Energy =                       -117.0592998294636118
  @DF-RHF Final Energy:  -117.05921204911752
    Total Energy =                       -117.0592120491175194
  @DF-RHF Final Energy:  -117.05917765968574
    Total Energy =                       -117.0591776596857443
  @DF-RHF Final Energy:  -117.05933011097754
    Total Energy =                       -117.0593301109775410
  @DF-RHF Final Energy:  -117.05920556450188
    Total Energy =                       -117.0592055645018803
  @DF-RHF Final Energy:  -117.05930614531709
    Total Energy =                       -117.0593061453170947
  @DF-RHF Final Energy:  -117.05933003489254
    Total Energy =                       -117.0593300348925396
  @DF-RHF Final Energy:  -117.05917773637964
    Total Energy =                       -117.0591777363796382
  @DF-RHF Final Energy:  -117.05917768962360
    Total Energy =                       -117.0591776896235956
  @DF-RHF Final Energy:  -117.05933008100615
    Total Energy =                       -117.0593300810061521
  @DF-RHF Final Energy:  -117.05925544695583
    Total Energy =                       -117.0592554469558308
  @DF-RHF Final Energy:  -117.05925522216737
    Total Energy =                       -117.0592552221673657
  @DF-RHF Final Energy:  -117.05925450569470
    Total Energy =                       -117.0592545056946960
  @DF-RHF Final Energy:  -117.05925663264657
    Total Energy =                       -117.0592566326465658
  @DF-RHF Final Energy:  -117.05925527179529
    Total Energy =                       -117.0592552717952941
  @DF-RHF Final Energy:  -117.05925540215537
    Total Energy =                       -117.0592554021553724
  @DF-RHF Final Energy:  -117.05925514394855
    Total Energy =                       -117.0592551439485476
  @DF-RHF Final Energy:  -117.05925684762735
    Total Energy =                       -117.0592568476273527
    Molecular point group: c1
  Charge       = 0
  Multiplicity = 1
  Basis Set: 6-31+G*
    Blend: 6-31+G*
  Basis Set: (6-31+G* AUX)
    Blend: HEAVY-AUG-CC-PVDZ-JKFIT

    Orbital Energies [Eh]
    ---------------------

    Doubly Occupied:

       1A    -11.230201     2A    -11.229250     3A    -11.229246
       4A     -1.127182     5A     -0.815257     6A     -0.815252
       7A     -0.664526     8A     -0.623489     9A     -0.511978
      10A     -0.511963    11A     -0.417287    12A     -0.417280

  @DF-RHF Final Energy:  -117.05925486149394

   => Energetics <=

    Nuclear Repulsion Energy =             75.2814718714328848
    One-Electron Energy =                -305.4956315123716877
    Two-Electron Energy =                 113.1549047794448768
    Total Energy =                       -117.0592548614939403

  Dipole Moment: [D]
     X:    -0.0001      Y:    -0.0001      Z:    -0.0007     Total:     0.0007

  Basis Set: (6-31+G* AUX)
    Blend: HEAVY-AUG-CC-PVDZ-RI
    Molecular point group: c1

    Geometry (in Angstrom), charge = 0, multiplicity = 1:

       Center              X                  Y                   Z               Mass
    ------------   -----------------  -----------------  -----------------  -----------------
         C            0.321531939855     0.813261460475     0.000000000000    12.000000000000
         C           -0.865048060145    -0.128168539525     0.000000000000    12.000000000000
         C            0.543531939855    -0.685078539525     0.000000000000    12.000000000000
         H            0.537951939855     1.360691460475    -0.920390000000     1.007825032230
         H            0.537951939855     1.360691460475     0.920390000000     1.007825032230
         H           -1.447418060145    -0.214488539525     0.919737951237     1.007825032230
         H           -1.447418060145    -0.214488539525    -0.920942048763     1.007825032230
         H            0.907830274543    -1.145679013968    -0.919767951237     1.007825032230
         H            0.910913605168    -1.146898065083     0.920972048763     1.007825032230

  Basis Set: 6-31+G*
    Blend: 6-31+G*
  Basis Set: (6-31+G* AUX)
    Blend: HEAVY-AUG-CC-PVDZ-JKFIT
  Basis Set: (6-31+G* AUX)
    Blend: HEAVY-AUG-CC-PVDZ-JKFIT
	 Reference Energy          =    -117.0592548614939403 [Eh]
	 Singles Energy            =      -0.0000000000000000 [Eh]
	 Same-Spin Energy          =      -0.0973352692372179 [Eh]
	 Opposite-Spin Energy      =      -0.3122785076903433 [Eh]
	 Correlation Energy        =      -0.4096137769275612 [Eh]
	 Total Energy              =    -117.4688686384214975 [Eh]

	 ================> DF-SCS-MP2 Energies <==================
	-----------------------------------------------------------
	 SCS Same-Spin Scale       =       0.3333333333333333 [-]
	 SCS Opposite-Spin Scale   =       1.2000000000000000 [-]
	 SCS Same-Spin Energy      =      -0.0324450897457393 [Eh]
	 SCS Opposite-Spin Energy  =      -0.3747342092284119 [Eh]
	 SCS Correlation Energy    =      -0.4071792989741512 [Eh]
	 SCS Total Energy          =    -117.4664341604680970 [Eh]
	-----------------------------------------------------------

  -Total Gradient:
     Atom            X                  Y                   Z
    ------   -----------------  -----------------  -----------------
       1        0.001353800989     0.003425678107     0.000004906414
       2       -0.003618245412    -0.000532923417     0.000457310650
       3        0.002287661473    -0.002875510753    -0.001273976766
       4        0.000963001354     0.002439223735    -0.004815077214
       5        0.000967749364     0.002451419433     0.004812438417
       6       -0.002429035022    -0.000386054157     0.004514660218
       7       -0.002789267535    -0.000392701150    -0.005092506025
       8        0.001258199916    -0.001695911445    -0.004111302090
       9        0.002006134873    -0.002433220353     0.005503546395

  Vibration                       7                   8                   9
  Freq [cm^-1]                 811.0644            811.0804            898.9329
  Irrep                          App                 App                  Ap
  Reduced mass [u]              1.0210              1.0210              4.2183
  Force const [mDyne/A]         0.3957              0.3957              2.0083

  Vibration                       10                  11                  12
  Freq [cm^-1]                 898.9632            919.5193           1123.6754
  Irrep                           Ap                 App                  Ap
  Reduced mass [u]              4.2187              1.0439              1.2156
  Force const [mDyne/A]         2.0087              0.5200              0.9043

  Vibration                       13                  14                  15
  Freq [cm^-1]                1123.7019           1133.6732           1206.8974
  Irrep                           Ap                  Ap                 App
  Reduced mass [u]              1.2157              1.4254              1.0078
  Force const [mDyne/A]         0.9045              1.0794              0.8649

  Vibration                       16                  17                  18
  Freq [cm^-1]                1229.4681           1256.3881           1256.3890
  Irrep                           Ap                 App                 App
  Reduced mass [u]              2.8837              1.4506              1.4506
  Force const [mDyne/A]         2.5682              1.3491              1.3491

  Vibration                       19                  20                  21
  Freq [cm^-1]                1527.1635           1527.1872           1576.2753
  Irrep                           Ap                  Ap                  Ap
  Reduced mass [u]              1.0898              1.0898              1.2790
  Force const [mDyne/A]         1.4975              1.4976              1.8724

  Vibration                       22                  23                  24
  Freq [cm^-1]                3132.4985           3132.5208           3140.8359
  Irrep                           Ap                  Ap                  Ap
  Reduced mass [u]              1.0503              1.0503              1.0648
  Force const [mDyne/A]         6.0722              6.0723              6.1885

  Vibration                       25                  26                  27
  Freq [cm^-1]                3219.0762           3219.0851           3237.4760
  Irrep                          App                 App                 App
  Reduced mass [u]              1.1206              1.1206              1.1163
  Force const [mDyne/A]         6.8417              6.8418              6.8935

  ==> Thermochemistry Components <==

  Entropy, S
    Electronic S            0.000 [cal/(mol K)]        0.000 [J/(mol K)]       0.00000000 [mEh/K] (multiplicity = 1)
    Translational S        37.135 [cal/(mol K)]      155.375 [J/(mol K)]       0.05917914 [mEh/K] (mol. weight = 42.0470 [u], P = 101325.00 [Pa])
    Rotational S           21.699 [cal/(mol K)]       90.789 [J/(mol K)]       0.03457982 [mEh/K] (symmetry no. = 1)
    Vibrational S           1.146 [cal/(mol K)]        4.794 [J/(mol K)]       0.00182609 [mEh/K]
  Total S                  59.981 [cal/(mol K)]      250.959 [J/(mol K)]       0.09558505 [mEh/K]
  Correction S              0.000 [cal/(mol K)]        0.000 [J/(mol K)]       0.00000000 [mEh/K]

  Constant volume heat capacity, Cv
    Electronic Cv           0.000 [cal/(mol K)]        0.000 [J/(mol K)]       0.00000000 [mEh/K]
    Translational Cv        2.981 [cal/(mol K)]       12.472 [J/(mol K)]       0.00475022 [mEh/K]
    Rotational Cv           2.981 [cal/(mol K)]       12.472 [J/(mol K)]       0.00475022 [mEh/K]
    Vibrational Cv          4.438 [cal/(mol K)]       18.567 [J/(mol K)]       0.00707196 [mEh/K]
  Total Cv                 10.399 [cal/(mol K)]       43.511 [J/(mol K)]       0.01657239 [mEh/K]
  Correction Cv             0.000 [cal/(mol K)]        0.000 [J/(mol K)]       0.00000000 [mEh/K]

  Constant pressure heat capacity, Cp
    Electronic Cp           0.000 [cal/(mol K)]        0.000 [J/(mol K)]       0.00000000 [mEh/K]
    Translational Cp        4.968 [cal/(mol K)]       20.786 [J/(mol K)]       0.00791703 [mEh/K]
    Rotational Cp           2.981 [cal/(mol K)]       12.472 [J/(mol K)]       0.00475022 [mEh/K]
    Vibrational Cp          4.438 [cal/(mol K)]       18.567 [J/(mol K)]       0.00707196 [mEh/K]
  Total Cp                 12.387 [cal/(mol K)]       51.825 [J/(mol K)]       0.01973920 [mEh/K]
  Correction Cp             0.000 [cal/(mol K)]        0.000 [J/(mol K)]       0.00000000 [mEh/K]

  ==> Thermochemistry Energy Analysis <==

  Raw electronic energy, E0
  Total E0, Electronic energy at well bottom at 0 [K]                 -117.46887127 [Eh]

  Zero-point energy, ZPE_vib = Sum_i nu_i / 2
    Electronic ZPE          0.000 [kcal/mol]        0.000 [kJ/mol]       0.00000000 [Eh]
    Translational ZPE       0.000 [kcal/mol]        0.000 [kJ/mol]       0.00000000 [Eh]
    Rotational ZPE          0.000 [kcal/mol]        0.000 [kJ/mol]       0.00000000 [Eh]
    Vibrational ZPE        52.010 [kcal/mol]      217.612 [kJ/mol]       0.08288400 [Eh]       18190.936 [cm^-1]
  Correction ZPE           52.010 [kcal/mol]      217.612 [kJ/mol]       0.08288400 [Eh]       18190.936 [cm^-1]
  Total ZPE, Electronic energy at 0 [K]                               -117.38598727 [Eh]

  Thermal Energy, E (includes ZPE)
    Electronic E            0.000 [kcal/mol]        0.000 [kJ/mol]       0.00000000 [Eh]
    Translational E         0.889 [kcal/mol]        3.718 [kJ/mol]       0.00141628 [Eh]
    Rotational E            0.889 [kcal/mol]        3.718 [kJ/mol]       0.00141628 [Eh]
    Vibrational E          52.291 [kcal/mol]      218.784 [kJ/mol]       0.08333061 [Eh]
  Correction E             54.068 [kcal/mol]      226.221 [kJ/mol]       0.08616317 [Eh]
  Total E, Electronic energy at  298.15 [K]                           -117.38270811 [Eh]

  Enthalpy, H_trans = E_trans + k_B * T
    Electronic H            0.000 [kcal/mol]        0.000 [kJ/mol]       0.00000000 [Eh]
    Translational H         1.481 [kcal/mol]        6.197 [kJ/mol]       0.00236046 [Eh]
    Rotational H            0.889 [kcal/mol]        3.718 [kJ/mol]       0.00141628 [Eh]
    Vibrational H          52.291 [kcal/mol]      218.784 [kJ/mol]       0.08333061 [Eh]
  Correction H             54.661 [kcal/mol]      228.700 [kJ/mol]       0.08710735 [Eh]
  Total H, Enthalpy at  298.15 [K]                                    -117.38176392 [Eh]

  Gibbs free energy, G = H - T * S
    Electronic G            0.000 [kcal/mol]        0.000 [kJ/mol]       0.00000000 [Eh]
    Translational G        -9.591 [kcal/mol]      -40.128 [kJ/mol]      -0.01528380 [Eh]
    Rotational G           -5.581 [kcal/mol]      -23.350 [kJ/mol]      -0.00889370 [Eh]
    Vibrational G          51.949 [kcal/mol]      217.355 [kJ/mol]       0.08278616 [Eh]
  Correction G             36.777 [kcal/mol]      153.877 [kJ/mol]       0.05860867 [Eh]
  Total G, Free enthalpy at  298.15 [K]                               -117.41026261 [Eh]

*** Psi4 exiting successfully. Buy a developer a beer!
