                               Psi4 1.3.2 release

  ==> Input File <==

--------------------------------------------------------------------------
set basis  6-31G
molecule {
0 1
   C        0.32153        0.81326        0.00000
   C       -0.86505       -0.12817        0.00000
   C        0.54353       -0.68508        0.00000
   H        0.53795        1.36069       -0.92039
   H        0.53795        1.36069        0.92039
   H       -1.44742       -0.21449        0.92034
   H       -1.44742       -0.21449       -0.92034
   H        0.90937       -1.14629       -0.92037
   H        0.90937       -1.14629        0.92037
}
energy('MP2')
frequencies('MP2')
--------------------------------------------------------------------------

    Molecular point group: cs
  Charge       = 0
  Multiplicity = 1
  Basis Set: 6-31G
    Blend: 6-31G
  Basis Set: (6-31G AUX)
    Blend: CC-PVDZ-JKFIT
  @DF-RHF Final Energy:  -117.00609560211976
    Total Energy =                       -117.0060956021197569
  Basis Set: (6-31G AUX)
    Blend: CC-PVDZ-RI
	 Reference Energy          =    -117.0060956021197569 [Eh]
	 Singles Energy            =      -0.0000000000000000 [Eh]
	 Same-Spin Energy          =      -0.0588330783298888 [Eh]
	 Opposite-Spin Energy      =      -0.2172862856914775 [Eh]
	 Correlation Energy        =      -0.2761193640213663 [Eh]
	 Total Energy              =    -117.2822149661411260 [Eh]
	 SCS Total Energy          =    -117.2864501710594993 [Eh]
    Molecular point group: cs
  Basis Set: 6-31G
    Blend: 6-31G
  Basis Set: (6-31G AUX)
    Blend: CC-PVDZ-JKFIT
  @DF-RHF Final Energy:  -117.00609560205837
    Total Energy =                       -117.0060956020583660
  Basis Set: (6-31G AUX)
  @DF-RHF Final Energy:  -117.00609560205837
    Total Energy =                       -117.0060956020583660
  @DF-RHF Final Energy:  -117.00609182928365
    Total Energy =                       -117.0060918292836476
  @DF-RHF Final Energy:  -117.00609803886894
    Total Energy =                       -117.0060980388689416
  @DF-RHF Final Energy:  -117.00608820915726
    Total Energy =                       -117.0060882091572552
  @DF-RHF Final Energy:  -117.00610118248376
    Total Energy =                       -117.0061011824837607
  @DF-RHF Final Energy:  -117.00610129328216
    Total Energy =                       -117.0061012932821569
  @DF-RHF Final Energy:  -117.00608778001948
    Total Energy =                       -117.0060877800194845
  @DF-RHF Final Energy:  -117.00609339752900
    Total Energy =                       -117.0060933975289998
  @DF-RHF Final Energy:  -117.00609606224114
    Total Energy =                       -117.0060960622411415
  @DF-RHF Final Energy:  -117.00609199487401
    Total Energy =                       -117.0060919948740121
  @DF-RHF Final Energy:  -117.00609657369297
    Total Energy =                       -117.0060965736929717
  @DF-RHF Final Energy:  -117.00609692521358
    Total Energy =                       -117.0060969252135834
  @DF-RHF Final Energy:  -117.00609154372761
    Total Energy =                       -117.0060915437276066
  @DF-RHF Final Energy:  -117.00611967756331
    Total Energy =                       -117.0061196775633050
  @DF-RHF Final Energy:  -117.00606864842513
    Total Energy =                       -117.0060686484251278
  @DF-RHF Final Energy:  -117.00613959263663
    Total Energy =                       -117.0061395926366288
  @DF-RHF Final Energy:  -117.00604837409755
    Total Energy =                       -117.0060483740975457
  @DF-RHF Final Energy:  -117.00599924171053
    Total Energy =                       -117.0059992417105263
  @DF-RHF Final Energy:  -117.00618475213875
    Total Energy =                       -117.0061847521387506
  @DF-RHF Final Energy:  -117.00604164319671
    Total Energy =                       -117.0060416431967099
  @DF-RHF Final Energy:  -117.00614616039871
    Total Energy =                       -117.0061461603987141
  @DF-RHF Final Energy:  -117.00618467517086
    Total Energy =                       -117.0061846751708572
  @DF-RHF Final Energy:  -117.00599931872813
    Total Energy =                       -117.0059993187281293
  @DF-RHF Final Energy:  -117.00599927178602
    Total Energy =                       -117.0059992717860240
  @DF-RHF Final Energy:  -117.00618472220617
    Total Energy =                       -117.0061847222061715
  @DF-RHF Final Energy:  -117.00609353092160
    Total Energy =                       -117.0060935309216035
  @DF-RHF Final Energy:  -117.00609331094088
    Total Energy =                       -117.0060933109408836
  @DF-RHF Final Energy:  -117.00609261149447
    Total Energy =                       -117.0060926114944664
  @DF-RHF Final Energy:  -117.00609466840478
    Total Energy =                       -117.0060946684047849
  @DF-RHF Final Energy:  -117.00609331023104
    Total Energy =                       -117.0060933102310372
  @DF-RHF Final Energy:  -117.00609346476045
    Total Energy =                       -117.0060934647604540
  @DF-RHF Final Energy:  -117.00609318447951
    Total Energy =                       -117.0060931844795107
  @DF-RHF Final Energy:  -117.00609487721243
    Total Energy =                       -117.0060948772124334
    Molecular point group: c1
  Charge       = 0
  Multiplicity = 1
  Basis Set: 6-31G
    Blend: 6-31G
  Basis Set: (6-31G AUX)
    Blend: CC-PVDZ-JKFIT

    Orbital Energies [Eh]
    ---------------------

    Doubly Occupied:

       1A    -11.229673     2A    -11.228756     3A    -11.228751
       4A     -1.134539     5A     -0.813739     6A     -0.813733
       7A     -0.666963     8A     -0.620050     9A     -0.507779
      10A     -0.507763    11A     -0.416177    12A     -0.416169

  @DF-RHF Final Energy:  -117.00609291407964

   => Energetics <=

    Nuclear Repulsion Energy =             75.2814718714328848
    One-Electron Energy =                -305.4069456191505765
    Two-Electron Energy =                 113.1193808336380613
    Total Energy =                       -117.0060929140796446

  Dipole Moment: [D]
     X:    -0.0001      Y:    -0.0001      Z:    -0.0007     Total:     0.0007

  Basis Set: (6-31G AUX)
    Blend: CC-PVDZ-RI
    Molecular point group: c1

    Geometry (in Angstrom), charge = 0, multiplicity = 1:

       Center              X                  Y                   Z               Mass
    ------------   -----------------  -----------------  -----------------  -----------------
         C            0.321531939855     0.813261460475     0.000000000000    12.000000000000
         C           -0.865048060145    -0.128168539525     0.000000000000    12.000000000000
         C            0.543531939855    -0.685078539525     0.000000000000    12.000000000000
         H            0.537951939855     1.360691460475    -0.920390000000     1.007825032230
         H            0.537951939855     1.360691460475     0.920390000000     1.007825032230
         H           -1.447418060145    -0.214488539525     0.919737951237     1.007825032230
         H           -1.447418060145    -0.214488539525    -0.920942048763     1.007825032230
         H            0.907830274543    -1.145679013968    -0.919767951237     1.007825032230
         H            0.910913605168    -1.146898065083     0.920972048763     1.007825032230

  Basis Set: 6-31G
    Blend: 6-31G
  Basis Set: (6-31G AUX)
    Blend: CC-PVDZ-JKFIT
  Basis Set: (6-31G AUX)
    Blend: CC-PVDZ-JKFIT
	 Reference Energy          =    -117.0060929140796446 [Eh]
	 Singles Energy            =      -0.0000000000000000 [Eh]
	 Same-Spin Energy          =      -0.0588330660203249 [Eh]
	 Opposite-Spin Energy      =      -0.2172863074475093 [Eh]
	 Correlation Energy        =      -0.2761193734678342 [Eh]
	 Total Energy              =    -117.2822122875474804 [Eh]

	 ================> DF-SCS-MP2 Energies <==================
	-----------------------------------------------------------
	 SCS Same-Spin Scale       =       0.3333333333333333 [-]
	 SCS Opposite-Spin Scale   =       1.2000000000000000 [-]
	 SCS Same-Spin Energy      =      -0.0196110220067750 [Eh]
	 SCS Opposite-Spin Energy  =      -0.2607435689370111 [Eh]
	 SCS Correlation Energy    =      -0.2803545909437861 [Eh]
	 SCS Total Energy          =    -117.2864475050234319 [Eh]
	-----------------------------------------------------------

  -Total Gradient:
     Atom            X                  Y                   Z
    ------   -----------------  -----------------  -----------------
       1       -0.004555542854    -0.011521436576    -0.000001093704
       2        0.012281888298     0.001823530668     0.000435693621
       3       -0.007701219832     0.009716744192    -0.001254311505
       4        0.000059666273     0.000154263620    -0.004384419800
       5        0.000063843040     0.000165874391     0.004382360175
       6        0.000003442593    -0.000026809026     0.004086847195
       7       -0.000361207867    -0.000032312162    -0.004659228683
       8       -0.000281079938     0.000238462843    -0.003679857784
       9        0.000490210287    -0.000518317950     0.005074010486

  Vibration                       7                   8                   9
  Freq [cm^-1]                 837.5190            837.5351            920.8378
  Irrep                          App                 App                  Ap
  Reduced mass [u]              1.0200              1.0200              3.9423
  Force const [mDyne/A]         0.4215              0.4215              1.9695

  Vibration                       10                  11                  12
  Freq [cm^-1]                 920.8760            937.6930           1184.4796
  Irrep                           Ap                 App                  Ap
  Reduced mass [u]              3.9424              1.0452              1.2436
  Force const [mDyne/A]         1.9698              0.5415              1.0280

  Vibration                       13                  14                  15
  Freq [cm^-1]                1184.4900           1197.2092           1235.2864
  Irrep                           Ap                  Ap                 App
  Reduced mass [u]              1.2436              1.4254              1.0078
  Force const [mDyne/A]         1.0280              1.2038              0.9061

  Vibration                       16                  17                  18
  Freq [cm^-1]                1262.1681           1287.1758           1287.1799
  Irrep                           Ap                 App                 App
  Reduced mass [u]              3.0758              1.4613              1.4613
  Force const [mDyne/A]         2.8869              1.4264              1.4265

  Vibration                       19                  20                  21
  Freq [cm^-1]                1562.7537           1562.7751           1593.9091
  Irrep                           Ap                  Ap                  Ap
  Reduced mass [u]              1.0870              1.0870              1.2407
  Force const [mDyne/A]         1.5641              1.5641              1.8571

  Vibration                       22                  23                  24
  Freq [cm^-1]                3129.9242           3129.9459           3143.0919
  Irrep                           Ap                  Ap                  Ap
  Reduced mass [u]              1.0509              1.0509              1.0676
  Force const [mDyne/A]         6.0656              6.0657              6.2140

  Vibration                       25                  26                  27
  Freq [cm^-1]                3216.7362           3216.7454           3240.7201
  Irrep                          App                 App                 App
  Reduced mass [u]              1.1156              1.1156              1.1148
  Force const [mDyne/A]         6.8011              6.8012              6.8980

  ==> Thermochemistry Components <==

  Entropy, S
    Electronic S            0.000 [cal/(mol K)]        0.000 [J/(mol K)]       0.00000000 [mEh/K] (multiplicity = 1)
    Translational S        37.135 [cal/(mol K)]      155.375 [J/(mol K)]       0.05917914 [mEh/K] (mol. weight = 42.0470 [u], P = 101325.00 [Pa])
    Rotational S           21.699 [cal/(mol K)]       90.789 [J/(mol K)]       0.03457982 [mEh/K] (symmetry no. = 1)
    Vibrational S           1.016 [cal/(mol K)]        4.251 [J/(mol K)]       0.00161925 [mEh/K]
  Total S                  59.851 [cal/(mol K)]      250.415 [J/(mol K)]       0.09537821 [mEh/K]
  Correction S              0.000 [cal/(mol K)]        0.000 [J/(mol K)]       0.00000000 [mEh/K]

  Constant volume heat capacity, Cv
    Electronic Cv           0.000 [cal/(mol K)]        0.000 [J/(mol K)]       0.00000000 [mEh/K]
    Translational Cv        2.981 [cal/(mol K)]       12.472 [J/(mol K)]       0.00475022 [mEh/K]
    Rotational Cv           2.981 [cal/(mol K)]       12.472 [J/(mol K)]       0.00475022 [mEh/K]
    Vibrational Cv          4.048 [cal/(mol K)]       16.935 [J/(mol K)]       0.00645034 [mEh/K]
  Total Cv                 10.009 [cal/(mol K)]       41.879 [J/(mol K)]       0.01595077 [mEh/K]
  Correction Cv             0.000 [cal/(mol K)]        0.000 [J/(mol K)]       0.00000000 [mEh/K]

  Constant pressure heat capacity, Cp
    Electronic Cp           0.000 [cal/(mol K)]        0.000 [J/(mol K)]       0.00000000 [mEh/K]
    Translational Cp        4.968 [cal/(mol K)]       20.786 [J/(mol K)]       0.00791703 [mEh/K]
    Rotational Cp           2.981 [cal/(mol K)]       12.472 [J/(mol K)]       0.00475022 [mEh/K]
    Vibrational Cp          4.048 [cal/(mol K)]       16.935 [J/(mol K)]       0.00645034 [mEh/K]
  Total Cp                 11.996 [cal/(mol K)]       50.193 [J/(mol K)]       0.01911758 [mEh/K]
  Correction Cp             0.000 [cal/(mol K)]        0.000 [J/(mol K)]       0.00000000 [mEh/K]

  ==> Thermochemistry Energy Analysis <==

  Raw electronic energy, E0
  Total E0, Electronic energy at well bottom at 0 [K]                 -117.28221497 [Eh]

  Zero-point energy, ZPE_vib = Sum_i nu_i / 2
    Electronic ZPE          0.000 [kcal/mol]        0.000 [kJ/mol]       0.00000000 [Eh]
    Translational ZPE       0.000 [kcal/mol]        0.000 [kJ/mol]       0.00000000 [Eh]
    Rotational ZPE          0.000 [kcal/mol]        0.000 [kJ/mol]       0.00000000 [Eh]
    Vibrational ZPE        52.736 [kcal/mol]      220.646 [kJ/mol]       0.08403944 [Eh]       18444.526 [cm^-1]
  Correction ZPE           52.736 [kcal/mol]      220.646 [kJ/mol]       0.08403944 [Eh]       18444.526 [cm^-1]
  Total ZPE, Electronic energy at 0 [K]                               -117.19817552 [Eh]

  Thermal Energy, E (includes ZPE)
    Electronic E            0.000 [kcal/mol]        0.000 [kJ/mol]       0.00000000 [Eh]
    Translational E         0.889 [kcal/mol]        3.718 [kJ/mol]       0.00141628 [Eh]
    Rotational E            0.889 [kcal/mol]        3.718 [kJ/mol]       0.00141628 [Eh]
    Vibrational E          52.985 [kcal/mol]      221.690 [kJ/mol]       0.08443718 [Eh]
  Correction E             54.763 [kcal/mol]      229.127 [kJ/mol]       0.08726974 [Eh]
  Total E, Electronic energy at  298.15 [K]                           -117.19494523 [Eh]

  Enthalpy, H_trans = E_trans + k_B * T
    Electronic H            0.000 [kcal/mol]        0.000 [kJ/mol]       0.00000000 [Eh]
    Translational H         1.481 [kcal/mol]        6.197 [kJ/mol]       0.00236046 [Eh]
    Rotational H            0.889 [kcal/mol]        3.718 [kJ/mol]       0.00141628 [Eh]
    Vibrational H          52.985 [kcal/mol]      221.690 [kJ/mol]       0.08443718 [Eh]
  Correction H             55.355 [kcal/mol]      231.606 [kJ/mol]       0.08821392 [Eh]
  Total H, Enthalpy at  298.15 [K]                                    -117.19400104 [Eh]

  Gibbs free energy, G = H - T * S
    Electronic G            0.000 [kcal/mol]        0.000 [kJ/mol]       0.00000000 [Eh]
    Translational G        -9.591 [kcal/mol]      -40.128 [kJ/mol]      -0.01528380 [Eh]
    Rotational G           -5.581 [kcal/mol]      -23.350 [kJ/mol]      -0.00889370 [Eh]
    Vibrational G          52.682 [kcal/mol]      220.422 [kJ/mol]       0.08395440 [Eh]
  Correction G             37.511 [kcal/mol]      156.944 [kJ/mol]       0.05977691 [Eh]
  Total G, Free enthalpy at  298.15 [K]                               -117.22243806 [Eh]

*** Psi4 exiting successfully. Buy a developer a beer!
