                               Psi4 1.3.2 release

  ==> Input File <==

--------------------------------------------------------------------------
set basis  cc-pVDZ
molecule {
0 1
   C        0.32153        0.81326        0.00000
   C       -0.86505       -0.12817        0.00000
   C        0.54353       -0.68508        0.00000
   H        0.53795        1.36069       -0.92039
   H        0.53795        1.36069        0.92039
   H       -1.44742       -0.21449        0.92034
   H       -1.44742       -0.21449       -0.92034
   H        0.90937       -1.14629       -0.92037
   H        0.90937       -1.14629        0.92037
}
energy('B3LYP')
frequencies('B3LYP')
--------------------------------------------------------------------------

    Molecular point group: cs
  Charge       = 0
  Multiplicity = 1
  Basis Set: CC-PVDZ
    Blend: CC-PVDZ
  Basis Set: (CC-PVDZ AUX)
    Blend: CC-PVDZ-JKFIT
  @DF-RKS Final Energy:  -117.89794807846778
    Total Energy =                       -117.8979480784677776
    Molecular point group: cs
  Basis Set: CC-PVDZ
    Blend: CC-PVDZ
  Basis Set: (CC-PVDZ AUX)
    Blend: CC-PVDZ-JKFIT
  @DF-RKS Final Energy:  -117.89794807875630
    Total Energy =                       -117.8979480787563006
  Basis Set: CC-PVDZ
    Blend: CC-PVDZ
  Basis Set: (CC-PVDZ AUX)
    Blend: CC-PVDZ-JKFIT
  Basis Set: CC-PVDZ
    Blend: CC-PVDZ
  Basis Set: (CC-PVDZ AUX)
    Blend: CC-PVDZ-JKFIT
  @DF-RKS Final Energy:  -117.89794807875624
    Total Energy =                       -117.8979480787562437
  Basis Set: CC-PVDZ
  @DF-RKS Final Energy:  -117.89795164005167
    Total Energy =                       -117.8979516400516729
  @DF-RKS Final Energy:  -117.89794818106475
    Total Energy =                       -117.8979481810647485
  @DF-RKS Final Energy:  -117.89795480075213
    Total Energy =                       -117.8979548007521316
  @DF-RKS Final Energy:  -117.89794294023200
    Total Energy =                       -117.8979429402319994
  @DF-RKS Final Energy:  -117.89794048929048
    Total Energy =                       -117.8979404892904768
  @DF-RKS Final Energy:  -117.89795282195310
    Total Energy =                       -117.8979528219530977
  @DF-RKS Final Energy:  -117.89794921454991
    Total Energy =                       -117.8979492145499108
  @DF-RKS Final Energy:  -117.89795000434519
    Total Energy =                       -117.8979500043451907
  @DF-RKS Final Energy:  -117.89795010637744
    Total Energy =                       -117.8979501063774364
  @DF-RKS Final Energy:  -117.89794374468519
    Total Energy =                       -117.8979437446851932
  @DF-RKS Final Energy:  -117.89794351497819
    Total Energy =                       -117.8979435149781949
  @DF-RKS Final Energy:  -117.89795041704609
    Total Energy =                       -117.8979504170460757
  @DF-RKS Final Energy:  -117.89794610336467
    Total Energy =                       -117.8979461033646743
  @DF-RKS Final Energy:  -117.89795236305251
    Total Energy =                       -117.8979523630524966
  @DF-RKS Final Energy:  -117.89794164509132
    Total Energy =                       -117.8979416450913220
  @DF-RKS Final Energy:  -117.89795069235413
    Total Energy =                       -117.8979506923541294
  @DF-RKS Final Energy:  -117.89794246497655
    Total Energy =                       -117.8979424649765519
  @DF-RKS Final Energy:  -117.89794663231424
    Total Energy =                       -117.8979466323142447
  @DF-RKS Final Energy:  -117.89795651561134
    Total Energy =                       -117.8979565156113409
  @DF-RKS Final Energy:  -117.89794648661007
    Total Energy =                       -117.8979464866100670
  @DF-RKS Final Energy:  -117.89794654659691
    Total Energy =                       -117.8979465465969128
  @DF-RKS Final Energy:  -117.89794255121356
    Total Energy =                       -117.8979425512135606
  @DF-RKS Final Energy:  -117.89794250854408
    Total Energy =                       -117.8979425085440766
  @DF-RKS Final Energy:  -117.89794658896429
    Total Energy =                       -117.8979465889642881
  @DF-RKS Final Energy:  -117.89794609442778
    Total Energy =                       -117.8979460944277804
  @DF-RKS Final Energy:  -117.89794589177725
    Total Energy =                       -117.8979458917772547
  @DF-RKS Final Energy:  -117.89794518885329
    Total Energy =                       -117.8979451888532850
  @DF-RKS Final Energy:  -117.89794717789812
    Total Energy =                       -117.8979471778981178
  @DF-RKS Final Energy:  -117.89794603494181
    Total Energy =                       -117.8979460349418105
  @DF-RKS Final Energy:  -117.89794582701137
    Total Energy =                       -117.8979458270113696
  @DF-RKS Final Energy:  -117.89794578295994
    Total Energy =                       -117.8979457829599369
  Basis Set: (CC-PVDZ AUX)
    Blend: CC-PVDZ-JKFIT
  Basis Set: CC-PVDZ
    Blend: CC-PVDZ
  Basis Set: (CC-PVDZ AUX)
    Blend: CC-PVDZ-JKFIT
  @DF-RKS Final Energy:  -117.89794756514377
    Total Energy =                       -117.8979475651437667
  Basis Set: CC-PVDZ
    Blend: CC-PVDZ
  Basis Set: (CC-PVDZ AUX)
    Blend: CC-PVDZ-JKFIT
    Molecular point group: c1
  Charge       = 0
  Multiplicity = 1
  Basis Set: CC-PVDZ
    Blend: CC-PVDZ
  Basis Set: (CC-PVDZ AUX)
    Blend: CC-PVDZ-JKFIT

    Orbital Energies [Eh]
    ---------------------

    Doubly Occupied:

       1A    -10.187733     2A    -10.187447     3A    -10.187443
       4A     -0.845091     5A     -0.593173     6A     -0.593168
       7A     -0.489031     8A     -0.460333     9A     -0.361123
      10A     -0.361109    11A     -0.292648    12A     -0.292642

  @DF-RKS Final Energy:  -117.89794567475235

   => Energetics <=

    Nuclear Repulsion Energy =             75.2814718714328848
    One-Electron Energy =                -305.8905509328592416
    Two-Electron Energy =                 127.6862377468144700
    DFT Exchange-Correlation Energy =     -14.9751043601404437
    Empirical Dispersion Energy =           0.0000000000000000
    VV10 Nonlocal Energy =                  0.0000000000000000
    Total Energy =                       -117.8979456747523500

  Dipole Moment: [D]
     X:    -0.0001      Y:    -0.0000      Z:    -0.0006     Total:     0.0006

    Molecular point group: c1

    Geometry (in Angstrom), charge = 0, multiplicity = 1:

       Center              X                  Y                   Z               Mass
    ------------   -----------------  -----------------  -----------------  -----------------
         C            0.321531939855     0.813261460475     0.000000000000    12.000000000000
         C           -0.865048060145    -0.128168539525     0.000000000000    12.000000000000
         C            0.543531939855    -0.685078539525     0.000000000000    12.000000000000
         H            0.537951939855     1.360691460475    -0.920390000000     1.007825032230
         H            0.537951939855     1.360691460475     0.920390000000     1.007825032230
         H           -1.447418060145    -0.214488539525     0.919737951237     1.007825032230
         H           -1.447418060145    -0.214488539525    -0.920942048763     1.007825032230
         H            0.907830274543    -1.145679013968    -0.919767951237     1.007825032230
         H            0.910913605168    -1.146898065083     0.920972048763     1.007825032230

  Basis Set: CC-PVDZ
    Blend: CC-PVDZ
  Basis Set: (CC-PVDZ AUX)
    Blend: CC-PVDZ-JKFIT

  -Total Gradient:
     Atom            X                  Y                   Z
    ------   -----------------  -----------------  -----------------
       1        0.001414250304     0.003591685960     0.000005329886
       2       -0.003792831640    -0.000560621052     0.000458375809
       3        0.002396047140    -0.003015390364    -0.001280653965
       4       -0.000220137313    -0.000551473321    -0.000295892403
       5       -0.000213626218    -0.000539031531     0.000293417133
       6        0.000753830182     0.000085539019    -0.000000387938
       7        0.000393015524     0.000076823228    -0.000571382757
       8       -0.000727110955     0.000820776621     0.000406780994
       9       -0.000005044471     0.000089590125     0.000984505569

  Vibration                       7                   8                   9
  Freq [cm^-1]                 730.7104            730.8986            853.9025
  Irrep                          App                 App                 App
  Reduced mass [u]              1.0222              1.0222              1.0439
  Force const [mDyne/A]         0.3216              0.3218              0.4485

  Vibration                       10                  11                  12
  Freq [cm^-1]                 880.3217            880.7667           1035.8313
  Irrep                           Ap                  Ap                  Ap
  Reduced mass [u]              3.5197              3.5075              1.2938
  Force const [mDyne/A]         1.6071              1.6031              0.8179

  Vibration                       13                  14                  15
  Freq [cm^-1]                1039.4391           1067.9850           1135.8883
  Irrep                           Ap                  Ap                 App
  Reduced mass [u]              1.2922              1.4254              1.0078
  Force const [mDyne/A]         0.8226              0.9579              0.7661

  Vibration                       16                  17                  18
  Freq [cm^-1]                1196.3562           1196.5035           1208.8595
  Irrep                          App                 App                  Ap
  Reduced mass [u]              1.4492              1.4491              2.4994
  Force const [mDyne/A]         1.2220              1.2223              2.1520

  Vibration                       19                  20                  21
  Freq [cm^-1]                1437.9941           1438.1457           1493.3438
  Irrep                           Ap                  Ap                  Ap
  Reduced mass [u]              1.0884              1.0883              1.3752
  Force const [mDyne/A]         1.3260              1.3262              1.8069

  Vibration                       22                  23                  24
  Freq [cm^-1]                3121.7149           3121.8354           3130.6054
  Irrep                           Ap                  Ap                  Ap
  Reduced mass [u]              1.0499              1.0500              1.0632
  Force const [mDyne/A]         6.0282              6.0291              6.1394

  Vibration                       25                  26                  27
  Freq [cm^-1]                3208.7483           3208.7724           3229.2733
  Irrep                          App                 App                 App
  Reduced mass [u]              1.1201              1.1201              1.1163
  Force const [mDyne/A]         6.7946              6.7947              6.8587

  ==> Thermochemistry Components <==

  Entropy, S
    Electronic S            0.000 [cal/(mol K)]        0.000 [J/(mol K)]       0.00000000 [mEh/K] (multiplicity = 1)
    Translational S        37.135 [cal/(mol K)]      155.375 [J/(mol K)]       0.05917914 [mEh/K] (mol. weight = 42.0470 [u], P = 101325.00 [Pa])
    Rotational S           21.699 [cal/(mol K)]       90.789 [J/(mol K)]       0.03457982 [mEh/K] (symmetry no. = 1)
    Vibrational S           1.465 [cal/(mol K)]        6.128 [J/(mol K)]       0.00233413 [mEh/K]
  Total S                  60.299 [cal/(mol K)]      252.292 [J/(mol K)]       0.09609309 [mEh/K]
  Correction S              0.000 [cal/(mol K)]        0.000 [J/(mol K)]       0.00000000 [mEh/K]

  Constant volume heat capacity, Cv
    Electronic Cv           0.000 [cal/(mol K)]        0.000 [J/(mol K)]       0.00000000 [mEh/K]
    Translational Cv        2.981 [cal/(mol K)]       12.472 [J/(mol K)]       0.00475022 [mEh/K]
    Rotational Cv           2.981 [cal/(mol K)]       12.472 [J/(mol K)]       0.00475022 [mEh/K]
    Vibrational Cv          5.275 [cal/(mol K)]       22.069 [J/(mol K)]       0.00840546 [mEh/K]
  Total Cv                 11.236 [cal/(mol K)]       47.012 [J/(mol K)]       0.01790589 [mEh/K]
  Correction Cv             0.000 [cal/(mol K)]        0.000 [J/(mol K)]       0.00000000 [mEh/K]

  Constant pressure heat capacity, Cp
    Electronic Cp           0.000 [cal/(mol K)]        0.000 [J/(mol K)]       0.00000000 [mEh/K]
    Translational Cp        4.968 [cal/(mol K)]       20.786 [J/(mol K)]       0.00791703 [mEh/K]
    Rotational Cp           2.981 [cal/(mol K)]       12.472 [J/(mol K)]       0.00475022 [mEh/K]
    Vibrational Cp          5.275 [cal/(mol K)]       22.069 [J/(mol K)]       0.00840546 [mEh/K]
  Total Cp                 13.223 [cal/(mol K)]       55.326 [J/(mol K)]       0.02107270 [mEh/K]
  Correction Cp             0.000 [cal/(mol K)]        0.000 [J/(mol K)]       0.00000000 [mEh/K]

  ==> Thermochemistry Energy Analysis <==

  Raw electronic energy, E0
  Total E0, Electronic energy at well bottom at 0 [K]                 -117.89794808 [Eh]

  Zero-point energy, ZPE_vib = Sum_i nu_i / 2
    Electronic ZPE          0.000 [kcal/mol]        0.000 [kJ/mol]       0.00000000 [Eh]
    Translational ZPE       0.000 [kcal/mol]        0.000 [kJ/mol]       0.00000000 [Eh]
    Rotational ZPE          0.000 [kcal/mol]        0.000 [kJ/mol]       0.00000000 [Eh]
    Vibrational ZPE        50.532 [kcal/mol]      211.427 [kJ/mol]       0.08052843 [Eh]       17673.948 [cm^-1]
  Correction ZPE           50.532 [kcal/mol]      211.427 [kJ/mol]       0.08052843 [Eh]       17673.948 [cm^-1]
  Total ZPE, Electronic energy at 0 [K]                               -117.81741965 [Eh]

  Thermal Energy, E (includes ZPE)
    Electronic E            0.000 [kcal/mol]        0.000 [kJ/mol]       0.00000000 [Eh]
    Translational E         0.889 [kcal/mol]        3.718 [kJ/mol]       0.00141628 [Eh]
    Rotational E            0.889 [kcal/mol]        3.718 [kJ/mol]       0.00141628 [Eh]
    Vibrational E          50.886 [kcal/mol]      212.907 [kJ/mol]       0.08109213 [Eh]
  Correction E             52.664 [kcal/mol]      220.344 [kJ/mol]       0.08392468 [Eh]
  Total E, Electronic energy at  298.15 [K]                           -117.81402340 [Eh]

  Enthalpy, H_trans = E_trans + k_B * T
    Electronic H            0.000 [kcal/mol]        0.000 [kJ/mol]       0.00000000 [Eh]
    Translational H         1.481 [kcal/mol]        6.197 [kJ/mol]       0.00236046 [Eh]
    Rotational H            0.889 [kcal/mol]        3.718 [kJ/mol]       0.00141628 [Eh]
    Vibrational H          50.886 [kcal/mol]      212.907 [kJ/mol]       0.08109213 [Eh]
  Correction H             53.256 [kcal/mol]      222.823 [kJ/mol]       0.08486886 [Eh]
  Total H, Enthalpy at  298.15 [K]                                    -117.81307921 [Eh]

  Gibbs free energy, G = H - T * S
    Electronic G            0.000 [kcal/mol]        0.000 [kJ/mol]       0.00000000 [Eh]
    Translational G        -9.591 [kcal/mol]      -40.128 [kJ/mol]      -0.01528380 [Eh]
    Rotational G           -5.581 [kcal/mol]      -23.350 [kJ/mol]      -0.00889370 [Eh]
    Vibrational G          50.449 [kcal/mol]      211.080 [kJ/mol]       0.08039621 [Eh]
  Correction G             35.278 [kcal/mol]      147.602 [kJ/mol]       0.05621871 [Eh]
  Total G, Free enthalpy at  298.15 [K]                               -117.84172937 [Eh]

*** Psi4 exiting successfully. Buy a developer a beer!
