                               Psi4 1.3.2 release

  ==> Input File <==

--------------------------------------------------------------------------
set basis  aug-cc-pVTZ
molecule {
0 1
   C       -0.61446        0.00000        0.00000
   C        0.61446        0.00000        0.00000
   H       -1.68923        0.00000        0.00000
   H        1.68923        0.00000        0.00000
}
energy('scf')
frequencies('scf')
--------------------------------------------------------------------------

    Molecular point group: d2h
  Charge       = 0
  Multiplicity = 1
  Basis Set: AUG-CC-PVTZ
    Blend: AUG-CC-PVTZ
  Basis Set: (AUG-CC-PVTZ AUX)
    Blend: AUG-CC-PVTZ-JKFIT
  @DF-RHF Final Energy:   -76.84575463810947
    Total Energy =                        -76.8457546381094687
    Molecular point group: d2h
  Basis Set: AUG-CC-PVTZ
    Blend: AUG-CC-PVTZ
  Basis Set: (AUG-CC-PVTZ AUX)
    Blend: AUG-CC-PVTZ-JKFIT
  @DF-RHF Final Energy:   -76.84575464023160
    Total Energy =                        -76.8457546402316041
  Basis Set: AUG-CC-PVTZ
    Blend: AUG-CC-PVTZ
  Basis Set: (AUG-CC-PVTZ AUX)
    Blend: AUG-CC-PVTZ-JKFIT

  -Total Gradient:
     Atom            X                  Y                   Z
    ------   -----------------  -----------------  -----------------
       1       -0.086335566021    -0.000000000000     0.000000000000
       2        0.086335566021     0.000000000000     0.000000000000
       3       -0.015992145643    -0.000000000000     0.000000000000
       4        0.015992145643     0.000000000000     0.000000000000

  Charge       = 0
  Multiplicity = 1
  Basis Set: AUG-CC-PVTZ
    Blend: AUG-CC-PVTZ
  Basis Set: (AUG-CC-PVTZ AUX)
    Blend: AUG-CC-PVTZ-JKFIT

    Orbital Energies [Eh]
    ---------------------

    Doubly Occupied:

       1Ag   -11.253582     1B3u  -11.250330     2Ag    -1.022834
       2B3u   -0.767057     3Ag    -0.676898     1B1u   -0.405335
       1B2u   -0.405335

  @DF-RHF Final Energy:   -76.84575464023160

   => Energetics <=

    Nuclear Repulsion Energy =             24.3232181713792350
    One-Electron Energy =                -150.7752015293806380
    Two-Electron Energy =                  49.6062287177698025
    Total Energy =                        -76.8457546402316041

  Dipole Moment: [D]
     X:     0.0000      Y:     0.0000      Z:     0.0000     Total:     0.0000

    Molecular point group: d2h
  Basis Set: AUG-CC-PVTZ
    Blend: AUG-CC-PVTZ
  Basis Set: (AUG-CC-PVTZ AUX)
    Blend: AUG-CC-PVTZ-JKFIT
  Basis Set: (AUG-CC-PVTZ AUX)
    Blend: AUG-CC-PVTZ-JKFIT
    Molecular point group: d2h

    Geometry (in Angstrom), charge = 0, multiplicity = 1:

       Center              X                  Y                   Z               Mass
    ------------   -----------------  -----------------  -----------------  -----------------
         C           -0.614460000000    -0.000000000000     0.000000000000    12.000000000000
         C            0.614460000000     0.000000000000     0.000000000000    12.000000000000
         H           -1.689230000000    -0.000000000000     0.000000000000     1.007825032230
         H            1.689230000000     0.000000000000     0.000000000000     1.007825032230

  Basis Set: AUG-CC-PVTZ
    Blend: AUG-CC-PVTZ
  Basis Set: (AUG-CC-PVTZ AUX)
    Blend: AUG-CC-PVTZ-JKFIT

  Vibration                       4                   5                   6
  Freq [cm^-1]                 388.2523            388.2523            864.0007
  Irrep
  Reduced mass [u]              2.1746              2.1746              1.6241
  Force const [mDyne/A]         0.1931              0.1931              0.7143

  IR activ [km/mol]             0.0000              0.0000              0.0000

  Vibration                       7                   8                   9
  Freq [cm^-1]                 864.0007            952.5290            952.5290
  Irrep                                              B1u                 B2u
  Reduced mass [u]              1.6241              1.0848              1.0848
  Force const [mDyne/A]         0.7143              0.5799              0.5799

  IR activ [km/mol]             0.0000             118.1641            118.1641

  Vibration                       10                  11                  12
  Freq [cm^-1]                1940.7584           3359.3427           3451.4875
  Irrep                           Ag                 B3u                  Ag
  Reduced mass [u]              4.0463              1.0848              1.2071
  Force const [mDyne/A]         8.9794              7.2130              8.4724

  IR activ [km/mol]             0.0000             114.2494             0.0000

  ==> Thermochemistry Components <==

  Entropy, S
    Electronic S            0.000 [cal/(mol K)]        0.000 [J/(mol K)]       0.00000000 [mEh/K] (multiplicity = 1)
    Translational S        35.704 [cal/(mol K)]      149.387 [J/(mol K)]       0.05689862 [mEh/K] (mol. weight = 26.0157 [u], P = 101325.00 [Pa])
    Rotational S           10.952 [cal/(mol K)]       45.824 [J/(mol K)]       0.01745345 [mEh/K] (symmetry no. = 2)
    Vibrational S           2.564 [cal/(mol K)]       10.728 [J/(mol K)]       0.00408609 [mEh/K]
  Total S                  49.221 [cal/(mol K)]      205.939 [J/(mol K)]       0.07843816 [mEh/K]
  Correction S              0.000 [cal/(mol K)]        0.000 [J/(mol K)]       0.00000000 [mEh/K]

  Constant volume heat capacity, Cv
    Electronic Cv           0.000 [cal/(mol K)]        0.000 [J/(mol K)]       0.00000000 [mEh/K]
    Translational Cv        2.981 [cal/(mol K)]       12.472 [J/(mol K)]       0.00475022 [mEh/K]
    Rotational Cv           1.987 [cal/(mol K)]        8.314 [J/(mol K)]       0.00316681 [mEh/K]
    Vibrational Cv          4.972 [cal/(mol K)]       20.803 [J/(mol K)]       0.00792330 [mEh/K]
  Total Cv                  9.940 [cal/(mol K)]       41.589 [J/(mol K)]       0.01584033 [mEh/K]
  Correction Cv             0.000 [cal/(mol K)]        0.000 [J/(mol K)]       0.00000000 [mEh/K]

  Constant pressure heat capacity, Cp
    Electronic Cp           0.000 [cal/(mol K)]        0.000 [J/(mol K)]       0.00000000 [mEh/K]
    Translational Cp        4.968 [cal/(mol K)]       20.786 [J/(mol K)]       0.00791703 [mEh/K]
    Rotational Cp           1.987 [cal/(mol K)]        8.314 [J/(mol K)]       0.00316681 [mEh/K]
    Vibrational Cp          4.972 [cal/(mol K)]       20.803 [J/(mol K)]       0.00792330 [mEh/K]
  Total Cp                 11.927 [cal/(mol K)]       49.903 [J/(mol K)]       0.01900714 [mEh/K]
  Correction Cp             0.000 [cal/(mol K)]        0.000 [J/(mol K)]       0.00000000 [mEh/K]

  ==> Thermochemistry Energy Analysis <==

  Raw electronic energy, E0
  Total E0, Electronic energy at well bottom at 0 [K]                  -76.84575464 [Eh]

  Zero-point energy, ZPE_vib = Sum_i nu_i / 2
    Electronic ZPE          0.000 [kcal/mol]        0.000 [kJ/mol]       0.00000000 [Eh]
    Translational ZPE       0.000 [kcal/mol]        0.000 [kJ/mol]       0.00000000 [Eh]
    Rotational ZPE          0.000 [kcal/mol]        0.000 [kJ/mol]       0.00000000 [Eh]
    Vibrational ZPE        18.815 [kcal/mol]       78.721 [kJ/mol]       0.02998331 [Eh]        6580.576 [cm^-1]
  Correction ZPE           18.815 [kcal/mol]       78.721 [kJ/mol]       0.02998331 [Eh]        6580.576 [cm^-1]
  Total ZPE, Electronic energy at 0 [K]                                -76.81577133 [Eh]

  Thermal Energy, E (includes ZPE)
    Electronic E            0.000 [kcal/mol]        0.000 [kJ/mol]       0.00000000 [Eh]
    Translational E         0.889 [kcal/mol]        3.718 [kJ/mol]       0.00141628 [Eh]
    Rotational E            0.592 [kcal/mol]        2.479 [kJ/mol]       0.00094418 [Eh]
    Vibrational E          19.351 [kcal/mol]       80.965 [kJ/mol]       0.03083808 [Eh]
  Correction E             20.832 [kcal/mol]       87.163 [kJ/mol]       0.03319854 [Eh]
  Total E, Electronic energy at  298.15 [K]                            -76.81255610 [Eh]

  Enthalpy, H_trans = E_trans + k_B * T
    Electronic H            0.000 [kcal/mol]        0.000 [kJ/mol]       0.00000000 [Eh]
    Translational H         1.481 [kcal/mol]        6.197 [kJ/mol]       0.00236046 [Eh]
    Rotational H            0.592 [kcal/mol]        2.479 [kJ/mol]       0.00094418 [Eh]
    Vibrational H          19.351 [kcal/mol]       80.965 [kJ/mol]       0.03083808 [Eh]
  Correction H             21.425 [kcal/mol]       89.642 [kJ/mol]       0.03414273 [Eh]
  Total H, Enthalpy at  298.15 [K]                                     -76.81161191 [Eh]

  Gibbs free energy, G = H - T * S
    Electronic G            0.000 [kcal/mol]        0.000 [kJ/mol]       0.00000000 [Eh]
    Translational G        -9.164 [kcal/mol]      -38.342 [kJ/mol]      -0.01460386 [Eh]
    Rotational G           -2.673 [kcal/mol]      -11.183 [kJ/mol]      -0.00425956 [Eh]
    Vibrational G          18.587 [kcal/mol]       77.767 [kJ/mol]       0.02961981 [Eh]
  Correction G              6.750 [kcal/mol]       28.241 [kJ/mol]       0.01075639 [Eh]
  Total G, Free enthalpy at  298.15 [K]                                -76.83499825 [Eh]

*** Psi4 exiting successfully. Buy a developer a beer!
