                               Psi4 1.3.2 release

  ==> Input File <==

--------------------------------------------------------------------------
set basis  aug-cc-pVTZ
molecule {
0 1
   C        0.32153        0.81326        0.00000
   C       -0.86505       -0.12817        0.00000
   C        0.54353       -0.68508        0.00000
   H        0.53795        1.36069       -0.92039
   H        0.53795        1.36069        0.92039
   H       -1.44742       -0.21449        0.92034
   H       -1.44742       -0.21449       -0.92034
   H        0.90937       -1.14629       -0.92037
   H        0.90937       -1.14629        0.92037
}
energy('m06-2x')
frequencies('m06-2x')
--------------------------------------------------------------------------

    Molecular point group: cs
  Charge       = 0
  Multiplicity = 1
  Basis Set: AUG-CC-PVTZ
    Blend: AUG-CC-PVTZ
  Basis Set: (AUG-CC-PVTZ AUX)
    Blend: AUG-CC-PVTZ-JKFIT
  @DF-RKS Final Energy:  -117.87794767034899
    Total Energy =                       -117.8779476703489877
    Molecular point group: cs
  Basis Set: AUG-CC-PVTZ
    Blend: AUG-CC-PVTZ
  Basis Set: (AUG-CC-PVTZ AUX)
    Blend: AUG-CC-PVTZ-JKFIT
  @DF-RKS Final Energy:  -117.87794767084762
    Total Energy =                       -117.8779476708476182
  Basis Set: AUG-CC-PVTZ
    Blend: AUG-CC-PVTZ
  Basis Set: (AUG-CC-PVTZ AUX)
    Blend: AUG-CC-PVTZ-JKFIT
  Basis Set: AUG-CC-PVTZ
    Blend: AUG-CC-PVTZ
  Basis Set: (AUG-CC-PVTZ AUX)
    Blend: AUG-CC-PVTZ-JKFIT
  @DF-RKS Final Energy:  -117.87794767084769
    Total Energy =                       -117.8779476708476892
  Basis Set: AUG-CC-PVTZ
  @DF-RKS Final Energy:  -117.87795853923529
    Total Energy =                       -117.8779585392352942
  @DF-RKS Final Energy:  -117.87795613939619
    Total Energy =                       -117.8779561393961899
  @DF-RKS Final Energy:  -117.87795356687941
    Total Energy =                       -117.8779535668794125
  @DF-RKS Final Energy:  -117.87793911645747
    Total Energy =                       -117.8779391164574690
  @DF-RKS Final Energy:  -117.87793968012826
    Total Energy =                       -117.8779396801282644
  @DF-RKS Final Energy:  -117.87795478027873
    Total Energy =                       -117.8779547802787278
  @DF-RKS Final Energy:  -117.87795516951313
    Total Energy =                       -117.8779551695131147
  @DF-RKS Final Energy:  -117.87795872681963
    Total Energy =                       -117.8779587268196281
  @DF-RKS Final Energy:  -117.87795681965380
    Total Energy =                       -117.8779568196538037
  @DF-RKS Final Energy:  -117.87794597191809
    Total Energy =                       -117.8779459719180949
  @DF-RKS Final Energy:  -117.87794617536238
    Total Energy =                       -117.8779461753623821
  @DF-RKS Final Energy:  -117.87794884956509
    Total Energy =                       -117.8779488495650867
  @DF-RKS Final Energy:  -117.87797591312652
    Total Energy =                       -117.8779759131265195
  @DF-RKS Final Energy:  -117.87793751598169
    Total Energy =                       -117.8779375159816851
  @DF-RKS Final Energy:  -117.87798414624834
    Total Energy =                       -117.8779841462483233
  @DF-RKS Final Energy:  -117.87790945597268
    Total Energy =                       -117.8779094559726843
  @DF-RKS Final Energy:  -117.87789174579851
    Total Energy =                       -117.8778917457985074
  @DF-RKS Final Energy:  -117.87799679641718
    Total Energy =                       -117.8779967964171789
  @DF-RKS Final Energy:  -117.87792042974486
    Total Energy =                       -117.8779204297448615
  @DF-RKS Final Energy:  -117.87800438752355
    Total Energy =                       -117.8780043875235464
  @DF-RKS Final Energy:  -117.87799684847330
    Total Energy =                       -117.8779968484733160
  @DF-RKS Final Energy:  -117.87789169038160
    Total Energy =                       -117.8778916903816025
  @DF-RKS Final Energy:  -117.87789184851069
    Total Energy =                       -117.8778918485106857
  @DF-RKS Final Energy:  -117.87799668762769
    Total Energy =                       -117.8779966876276859
  @DF-RKS Final Energy:  -117.87794580076432
    Total Energy =                       -117.8779458007643228
  @DF-RKS Final Energy:  -117.87794555411705
    Total Energy =                       -117.8779455541170478
  @DF-RKS Final Energy:  -117.87794481725199
    Total Energy =                       -117.8779448172519864
  @DF-RKS Final Energy:  -117.87794699883294
    Total Energy =                       -117.8779469988329396
  @DF-RKS Final Energy:  -117.87794547827292
    Total Energy =                       -117.8779454782729204
  @DF-RKS Final Energy:  -117.87794588403116
    Total Energy =                       -117.8779458840311634
  @DF-RKS Final Energy:  -117.87794544146614
    Total Energy =                       -117.8779454414661387
  Basis Set: (AUG-CC-PVTZ AUX)
    Blend: AUG-CC-PVTZ-JKFIT
  Basis Set: AUG-CC-PVTZ
    Blend: AUG-CC-PVTZ
  Basis Set: (AUG-CC-PVTZ AUX)
    Blend: AUG-CC-PVTZ-JKFIT
  @DF-RKS Final Energy:  -117.87794706364892
    Total Energy =                       -117.8779470636489179
  Basis Set: AUG-CC-PVTZ
    Blend: AUG-CC-PVTZ
  Basis Set: (AUG-CC-PVTZ AUX)
    Blend: AUG-CC-PVTZ-JKFIT
    Molecular point group: c1
  Charge       = 0
  Multiplicity = 1
  Basis Set: AUG-CC-PVTZ
    Blend: AUG-CC-PVTZ
  Basis Set: (AUG-CC-PVTZ AUX)
    Blend: AUG-CC-PVTZ-JKFIT

    Orbital Energies [Eh]
    ---------------------

    Doubly Occupied:

       1A    -10.539503     2A    -10.538895     3A    -10.538887
       4A     -0.944117     5A     -0.678988     6A     -0.678972
       7A     -0.565624     8A     -0.528134     9A     -0.424468
      10A     -0.424441    11A     -0.351019    12A     -0.350993

  @DF-RKS Final Energy:  -117.87794503853594

   => Energetics <=

    Nuclear Repulsion Energy =             75.2814718714328848
    One-Electron Energy =                -305.8695474427304362
    Two-Electron Energy =                 121.6190318954992904
    DFT Exchange-Correlation Energy =      -8.9089013627376641
    Empirical Dispersion Energy =           0.0000000000000000
    VV10 Nonlocal Energy =                  0.0000000000000000
    Total Energy =                       -117.8779450385359411

  Dipole Moment: [D]
     X:     0.0003      Y:    -0.0003      Z:    -0.0005     Total:     0.0007

    Molecular point group: c1

    Geometry (in Angstrom), charge = 0, multiplicity = 1:

       Center              X                  Y                   Z               Mass
    ------------   -----------------  -----------------  -----------------  -----------------
         C            0.321531939855     0.813261460475     0.000000000000    12.000000000000
         C           -0.865048060145    -0.128168539525     0.000000000000    12.000000000000
         C            0.543531939855    -0.685078539525     0.000000000000    12.000000000000
         H            0.537951939855     1.360691460475    -0.920390000000     1.007825032230
         H            0.537951939855     1.360691460475     0.920390000000     1.007825032230
         H           -1.447418060145    -0.214488539525     0.919737951237     1.007825032230
         H           -1.447418060145    -0.214488539525    -0.920942048763     1.007825032230
         H            0.907830274543    -1.145679013968    -0.919767951237     1.007825032230
         H            0.910913605168    -1.146898065083     0.920972048763     1.007825032230

  Basis Set: AUG-CC-PVTZ
    Blend: AUG-CC-PVTZ
  Basis Set: (AUG-CC-PVTZ AUX)
    Blend: AUG-CC-PVTZ-JKFIT

  -Total Gradient:
     Atom            X                  Y                   Z
    ------   -----------------  -----------------  -----------------
       1        0.001753987638     0.004415703646     0.000005812859
       2       -0.004652827554    -0.000652468813     0.000433351220
       3        0.002997116476    -0.003730242728    -0.001205647708
       4        0.001809324516     0.004549788181    -0.007474712612
       5        0.001812852845     0.004562698818     0.007472077080
       6       -0.004676721613    -0.000708772693     0.007185971164
       7       -0.005014956071    -0.000715502362    -0.007732115767
       8        0.002711114958    -0.003498894824    -0.006783826299
       9        0.003420719419    -0.004195554871     0.008098073155

  Vibration                       7                   8                   9
  Freq [cm^-1]                 797.3039            801.6298            885.0145
  Irrep                          App                 App                  Ap
  Reduced mass [u]              1.0216              1.0222              3.6711
  Force const [mDyne/A]         0.3826              0.3870              1.6941

  Vibration                       10                  11                  12
  Freq [cm^-1]                 891.3343            904.8785           1077.4977
  Irrep                           Ap                 App                  Ap
  Reduced mass [u]              4.1593              1.0439              1.2721
  Force const [mDyne/A]         1.9469              0.5036              0.8701

  Vibration                       13                  14                  15
  Freq [cm^-1]                1085.1335           1120.6113           1181.1377
  Irrep                           Ap                  Ap                 App
  Reduced mass [u]              1.2725              1.3887              1.0084
  Force const [mDyne/A]         0.8828              1.0275              0.8289

  Vibration                       16                  17                  18
  Freq [cm^-1]                1195.7688           1225.1781           1226.6361
  Irrep                           Ap                 App                 App
  Reduced mass [u]              2.6539              1.4458              1.4487
  Force const [mDyne/A]         2.2358              1.2786              1.2843

  Vibration                       19                  20                  21
  Freq [cm^-1]                1482.1349           1490.8043           1533.9780
  Irrep                           Ap                  Ap                  Ap
  Reduced mass [u]              1.0956              1.0902              1.2971
  Force const [mDyne/A]         1.4180              1.4276              1.7983

  Vibration                       22                  23                  24
  Freq [cm^-1]                3053.5554           3057.7331           3061.2927
  Irrep                           Ap                  Ap                  Ap
  Reduced mass [u]              1.0497              1.0509              1.0625
  Force const [mDyne/A]         5.7670              5.7889              5.8668

  Vibration                       25                  26                  27
  Freq [cm^-1]                3129.7117           3129.8265           3148.5268
  Irrep                          App                 App                 App
  Reduced mass [u]              1.1212              1.1212              1.1163
  Force const [mDyne/A]         6.4706              6.4711              6.5198

  ==> Thermochemistry Components <==

  Entropy, S
    Electronic S            0.000 [cal/(mol K)]        0.000 [J/(mol K)]       0.00000000 [mEh/K] (multiplicity = 1)
    Translational S        37.135 [cal/(mol K)]      155.375 [J/(mol K)]       0.05917914 [mEh/K] (mol. weight = 42.0470 [u], P = 101325.00 [Pa])
    Rotational S           21.699 [cal/(mol K)]       90.789 [J/(mol K)]       0.03457982 [mEh/K] (symmetry no. = 1)
    Vibrational S           1.233 [cal/(mol K)]        5.160 [J/(mol K)]       0.00196541 [mEh/K]
  Total S                  60.068 [cal/(mol K)]      251.324 [J/(mol K)]       0.09572437 [mEh/K]
  Correction S              0.000 [cal/(mol K)]        0.000 [J/(mol K)]       0.00000000 [mEh/K]

  Constant volume heat capacity, Cv
    Electronic Cv           0.000 [cal/(mol K)]        0.000 [J/(mol K)]       0.00000000 [mEh/K]
    Translational Cv        2.981 [cal/(mol K)]       12.472 [J/(mol K)]       0.00475022 [mEh/K]
    Rotational Cv           2.981 [cal/(mol K)]       12.472 [J/(mol K)]       0.00475022 [mEh/K]
    Vibrational Cv          4.712 [cal/(mol K)]       19.714 [J/(mol K)]       0.00750857 [mEh/K]
  Total Cv                 10.673 [cal/(mol K)]       44.657 [J/(mol K)]       0.01700900 [mEh/K]
  Correction Cv             0.000 [cal/(mol K)]        0.000 [J/(mol K)]       0.00000000 [mEh/K]

  Constant pressure heat capacity, Cp
    Electronic Cp           0.000 [cal/(mol K)]        0.000 [J/(mol K)]       0.00000000 [mEh/K]
    Translational Cp        4.968 [cal/(mol K)]       20.786 [J/(mol K)]       0.00791703 [mEh/K]
    Rotational Cp           2.981 [cal/(mol K)]       12.472 [J/(mol K)]       0.00475022 [mEh/K]
    Vibrational Cp          4.712 [cal/(mol K)]       19.714 [J/(mol K)]       0.00750857 [mEh/K]
  Total Cp                 12.661 [cal/(mol K)]       52.972 [J/(mol K)]       0.02017581 [mEh/K]
  Correction Cp             0.000 [cal/(mol K)]        0.000 [J/(mol K)]       0.00000000 [mEh/K]

  ==> Thermochemistry Energy Analysis <==

  Raw electronic energy, E0
  Total E0, Electronic energy at well bottom at 0 [K]                 -117.87794767 [Eh]

  Zero-point energy, ZPE_vib = Sum_i nu_i / 2
    Electronic ZPE          0.000 [kcal/mol]        0.000 [kJ/mol]       0.00000000 [Eh]
    Translational ZPE       0.000 [kcal/mol]        0.000 [kJ/mol]       0.00000000 [Eh]
    Rotational ZPE          0.000 [kcal/mol]        0.000 [kJ/mol]       0.00000000 [Eh]
    Vibrational ZPE        50.721 [kcal/mol]      212.216 [kJ/mol]       0.08082868 [Eh]       17739.844 [cm^-1]
  Correction ZPE           50.721 [kcal/mol]      212.216 [kJ/mol]       0.08082868 [Eh]       17739.844 [cm^-1]
  Total ZPE, Electronic energy at 0 [K]                               -117.79711900 [Eh]

  Thermal Energy, E (includes ZPE)
    Electronic E            0.000 [kcal/mol]        0.000 [kJ/mol]       0.00000000 [Eh]
    Translational E         0.889 [kcal/mol]        3.718 [kJ/mol]       0.00141628 [Eh]
    Rotational E            0.889 [kcal/mol]        3.718 [kJ/mol]       0.00141628 [Eh]
    Vibrational E          51.022 [kcal/mol]      213.475 [kJ/mol]       0.08130840 [Eh]
  Correction E             52.799 [kcal/mol]      220.912 [kJ/mol]       0.08414095 [Eh]
  Total E, Electronic energy at  298.15 [K]                           -117.79380672 [Eh]

  Enthalpy, H_trans = E_trans + k_B * T
    Electronic H            0.000 [kcal/mol]        0.000 [kJ/mol]       0.00000000 [Eh]
    Translational H         1.481 [kcal/mol]        6.197 [kJ/mol]       0.00236046 [Eh]
    Rotational H            0.889 [kcal/mol]        3.718 [kJ/mol]       0.00141628 [Eh]
    Vibrational H          51.022 [kcal/mol]      213.475 [kJ/mol]       0.08130840 [Eh]
  Correction H             53.392 [kcal/mol]      223.391 [kJ/mol]       0.08508514 [Eh]
  Total H, Enthalpy at  298.15 [K]                                    -117.79286253 [Eh]

  Gibbs free energy, G = H - T * S
    Electronic G            0.000 [kcal/mol]        0.000 [kJ/mol]       0.00000000 [Eh]
    Translational G        -9.591 [kcal/mol]      -40.128 [kJ/mol]      -0.01528380 [Eh]
    Rotational G           -5.581 [kcal/mol]      -23.350 [kJ/mol]      -0.00889370 [Eh]
    Vibrational G          50.654 [kcal/mol]      211.937 [kJ/mol]       0.08072241 [Eh]
  Correction G             35.482 [kcal/mol]      148.459 [kJ/mol]       0.05654492 [Eh]
  Total G, Free enthalpy at  298.15 [K]                               -117.82140275 [Eh]

*** Psi4 exiting successfully. Buy a developer a beer!
