                               Psi4 1.3.2 release

  ==> Input File <==

--------------------------------------------------------------------------
set basis  aug-cc-pVTZ
molecule {
0 1
   C       -0.61446        0.00000        0.00000
   C        0.61446        0.00000        0.00000
   H       -1.68923        0.00000        0.00000
   H        1.68923        0.00000        0.00000
}
energy('CCSD')
frequencies('CCSD')
--------------------------------------------------------------------------

    Molecular point group: d2h
  Charge       = 0
  Multiplicity = 1
  Basis Set: AUG-CC-PVTZ
    Blend: AUG-CC-PVTZ
  @RHF Final Energy:   -76.84581073244783
    Total Energy =                        -76.8458107324478306
      * MP2 total energy                      =  -77.196860768239446
      * CCSD total energy                     =  -77.208420565559905
    Molecular point group: d2h
  Basis Set: AUG-CC-PVTZ
    Blend: AUG-CC-PVTZ
  @RHF Final Energy:   -76.84581073244775
    Total Energy =                        -76.8458107324477453
      * MP2 total energy                      =  -77.196860768032508
      * CCSD total energy                     =  -77.208420567480843
  Basis Set: AUG-CC-PVTZ
    Blend: AUG-CC-PVTZ
  @RHF Final Energy:   -76.84581073244775
    Total Energy =                        -76.8458107324477453
      * MP2 total energy                      =  -77.196860768032508
      * CCSD total energy                     =  -77.208420567018649
  Basis Set: AUG-CC-PVTZ
    Blend: AUG-CC-PVTZ
  @RHF Final Energy:   -76.84563167481173
    Total Energy =                        -76.8456316748117274
      * MP2 total energy                      =  -77.196811292250345
      * CCSD total energy                     =  -77.208333208429025
  @RHF Final Energy:   -76.84598483960562
    Total Energy =                        -76.8459848396056202
      * MP2 total energy                      =  -77.196905652152509
      * CCSD total energy                     =  -77.208503213235730
  @RHF Final Energy:   -76.84569322334110
    Total Energy =                        -76.8456932233411010
      * MP2 total energy                      =  -77.196758815073679
      * CCSD total energy                     =  -77.208319114482535
  @RHF Final Energy:   -76.84591835961911
    Total Energy =                        -76.8459183596191053
      * MP2 total energy                      =  -77.196953261351084
      * CCSD total energy                     =  -77.208512612533269
  @RHF Final Energy:   -76.84581054424035
    Total Energy =                        -76.8458105442403507
      * MP2 total energy                      =  -77.196860665296242
      * CCSD total energy                     =  -77.208420444499495
  @RHF Final Energy:   -76.84581049609268
    Total Energy =                        -76.8458104960926818
      * MP2 total energy                      =  -77.196860585203680
      * CCSD total energy                     =  -77.208420379471576
  @RHF Final Energy:   -76.84581054423992
    Total Energy =                        -76.8458105442399244
      * MP2 total energy                      =  -77.196860665295858
      * CCSD total energy                     =  -77.208420444499026
  Basis Set: AUG-CC-PVTZ
    Blend: AUG-CC-PVTZ
  @RHF Final Energy:   -76.84581049609272
    Total Energy =                        -76.8458104960927386
      * MP2 total energy                      =  -77.196860585203893
      * CCSD total energy                     =  -77.208420379471775
  Basis Set: AUG-CC-PVTZ
    Blend: AUG-CC-PVTZ
  @RHF Final Energy:   -76.84581030337779
    Total Energy =                        -76.8458103033777888
      * MP2 total energy                      =  -77.196860426232476
      * CCSD total energy                     =  -77.208420217528484
  Basis Set: AUG-CC-PVTZ
    Blend: AUG-CC-PVTZ
  @RHF Final Energy:   -76.84581030337783
    Total Energy =                        -76.8458103033778315
      * MP2 total energy                      =  -77.196860426232462
      * CCSD total energy                     =  -77.208420217528342
    Molecular point group: c2v
  Charge       = 0
  Multiplicity = 1
  Basis Set: AUG-CC-PVTZ
    Blend: AUG-CC-PVTZ

    Orbital Energies [Eh]
    ---------------------

    Doubly Occupied:

       1A1   -11.253545     2A1   -11.250270     3A1    -1.022811
       4A1    -0.767057     5A1    -0.676892     1B1    -0.405333
       1B2    -0.405333

  @RHF Final Energy:   -76.84580539348991

   => Energetics <=

    Nuclear Repulsion Energy =             24.3232393838559098
    One-Electron Energy =                -150.7756045648136194
    Two-Electron Energy =                  49.6065597874678090
    Total Energy =                        -76.8458053934899112

  Dipole Moment: [D]
     X:     0.0044      Y:     0.0000      Z:     0.0000     Total:     0.0044

      * MP2 total energy                      =  -77.196855821309455
      * CCSD total energy                     =  -77.208415669884886
    Molecular point group: c2v

    Geometry (in Bohr), charge = 0, multiplicity = 1:

       Center              X                  Y                   Z
    ------------   -----------------  -----------------  -----------------
         C           -1.161445204175     0.000000000000     0.000000000000
         C            1.160877025923     0.000000000000     0.000000000000
         H           -3.188799462353     0.000000000000     0.000000000000
         H            3.195564663461     0.000000000000     0.000000000000

  -Total gradient:
     Atom            X                  Y                   Z
    ------   -----------------  -----------------  -----------------
       1       -0.042988288559     0.000000000000     0.000000000000
       2        0.040317101471     0.000000000000     0.000000000000
       3       -0.012394775987     0.000000000000     0.000000000000
       4        0.015065963072     0.000000000000     0.000000000000

  Vibration                       4                   5                   6
  Freq [cm^-1]                 302.5738            302.5738            750.9389
  Irrep                          B2g                 B1g                 B2g
  Reduced mass [u]              2.4659              2.4659              1.4924
  Force const [mDyne/A]         0.1330              0.1330              0.4959

  Vibration                       7                   8                   9
  Freq [cm^-1]                 750.9389            859.5452            859.5452
  Irrep                          B1g                 B2u                 B1u
  Reduced mass [u]              1.4924              1.0848              1.0848
  Force const [mDyne/A]         0.4959              0.4722              0.4722

  Vibration                       10                  11                  12
  Freq [cm^-1]                1893.7857           3217.5367           3367.1439
  Irrep                           Ag                 B3u                  Ag
  Reduced mass [u]              4.0510              1.0848              1.2067
  Force const [mDyne/A]         8.5601              6.6169              8.0606

  ==> Thermochemistry Components <==

  Entropy, S
    Electronic S            0.000 [cal/(mol K)]        0.000 [J/(mol K)]       0.00000000 [mEh/K] (multiplicity = 1)
    Translational S        35.704 [cal/(mol K)]      149.387 [J/(mol K)]       0.05689862 [mEh/K] (mol. weight = 26.0157 [u], P = 101325.00 [Pa])
    Rotational S           10.952 [cal/(mol K)]       45.824 [J/(mol K)]       0.01745345 [mEh/K] (symmetry no. = 2)
    Vibrational S           3.638 [cal/(mol K)]       15.220 [J/(mol K)]       0.00579690 [mEh/K]
  Total S                  50.294 [cal/(mol K)]      210.431 [J/(mol K)]       0.08014897 [mEh/K]
  Correction S              0.000 [cal/(mol K)]        0.000 [J/(mol K)]       0.00000000 [mEh/K]

  Constant volume heat capacity, Cv
    Electronic Cv           0.000 [cal/(mol K)]        0.000 [J/(mol K)]       0.00000000 [mEh/K]
    Translational Cv        2.981 [cal/(mol K)]       12.472 [J/(mol K)]       0.00475022 [mEh/K]
    Rotational Cv           1.987 [cal/(mol K)]        8.314 [J/(mol K)]       0.00316681 [mEh/K]
    Vibrational Cv          5.941 [cal/(mol K)]       24.856 [J/(mol K)]       0.00946716 [mEh/K]
  Total Cv                 10.909 [cal/(mol K)]       45.642 [J/(mol K)]       0.01738419 [mEh/K]
  Correction Cv             0.000 [cal/(mol K)]        0.000 [J/(mol K)]       0.00000000 [mEh/K]

  Constant pressure heat capacity, Cp
    Electronic Cp           0.000 [cal/(mol K)]        0.000 [J/(mol K)]       0.00000000 [mEh/K]
    Translational Cp        4.968 [cal/(mol K)]       20.786 [J/(mol K)]       0.00791703 [mEh/K]
    Rotational Cp           1.987 [cal/(mol K)]        8.314 [J/(mol K)]       0.00316681 [mEh/K]
    Vibrational Cp          5.941 [cal/(mol K)]       24.856 [J/(mol K)]       0.00946716 [mEh/K]
  Total Cp                 12.896 [cal/(mol K)]       53.957 [J/(mol K)]       0.02055100 [mEh/K]
  Correction Cp             0.000 [cal/(mol K)]        0.000 [J/(mol K)]       0.00000000 [mEh/K]

  ==> Thermochemistry Energy Analysis <==

  Raw electronic energy, E0
  Total E0, Electronic energy at well bottom at 0 [K]                  -77.20842057 [Eh]

  Zero-point energy, ZPE_vib = Sum_i nu_i / 2
    Electronic ZPE          0.000 [kcal/mol]        0.000 [kJ/mol]       0.00000000 [Eh]
    Translational ZPE       0.000 [kcal/mol]        0.000 [kJ/mol]       0.00000000 [Eh]
    Rotational ZPE          0.000 [kcal/mol]        0.000 [kJ/mol]       0.00000000 [Eh]
    Vibrational ZPE        17.590 [kcal/mol]       73.598 [kJ/mol]       0.02803190 [Eh]        6152.291 [cm^-1]
  Correction ZPE           17.590 [kcal/mol]       73.598 [kJ/mol]       0.02803190 [Eh]        6152.291 [cm^-1]
  Total ZPE, Electronic energy at 0 [K]                                -77.18038867 [Eh]

  Thermal Energy, E (includes ZPE)
    Electronic E            0.000 [kcal/mol]        0.000 [kJ/mol]       0.00000000 [Eh]
    Translational E         0.889 [kcal/mol]        3.718 [kJ/mol]       0.00141628 [Eh]
    Rotational E            0.592 [kcal/mol]        2.479 [kJ/mol]       0.00094418 [Eh]
    Vibrational E          18.311 [kcal/mol]       76.612 [kJ/mol]       0.02918003 [Eh]
  Correction E             19.792 [kcal/mol]       82.810 [kJ/mol]       0.03154049 [Eh]
  Total E, Electronic energy at  298.15 [K]                            -77.17688007 [Eh]

  Enthalpy, H_trans = E_trans + k_B * T
    Electronic H            0.000 [kcal/mol]        0.000 [kJ/mol]       0.00000000 [Eh]
    Translational H         1.481 [kcal/mol]        6.197 [kJ/mol]       0.00236046 [Eh]
    Rotational H            0.592 [kcal/mol]        2.479 [kJ/mol]       0.00094418 [Eh]
    Vibrational H          18.311 [kcal/mol]       76.612 [kJ/mol]       0.02918003 [Eh]
  Correction H             20.384 [kcal/mol]       85.289 [kJ/mol]       0.03248468 [Eh]
  Total H, Enthalpy at  298.15 [K]                                     -77.17593589 [Eh]

  Gibbs free energy, G = H - T * S
    Electronic G            0.000 [kcal/mol]        0.000 [kJ/mol]       0.00000000 [Eh]
    Translational G        -9.164 [kcal/mol]      -38.342 [kJ/mol]      -0.01460386 [Eh]
    Rotational G           -2.673 [kcal/mol]      -11.183 [kJ/mol]      -0.00425956 [Eh]
    Vibrational G          17.226 [kcal/mol]       72.074 [kJ/mol]       0.02745169 [Eh]
  Correction G              5.389 [kcal/mol]       22.548 [kJ/mol]       0.00858826 [Eh]
  Total G, Free enthalpy at  298.15 [K]                                -77.19983230 [Eh]

*** Psi4 exiting successfully. Buy a developer a beer!
