                               Psi4 1.3.2 release

  ==> Input File <==

--------------------------------------------------------------------------
set basis  cc-pVDZ
molecule {
0 1
   O        0.00000        0.00000        0.49152
   C        0.00000        0.00000       -0.65516
}
energy('B3LYP')
frequencies('B3LYP')
--------------------------------------------------------------------------

    Molecular point group: c2v
  Charge       = 0
  Multiplicity = 1
  Basis Set: CC-PVDZ
    Blend: CC-PVDZ
  Basis Set: (CC-PVDZ AUX)
    Blend: CC-PVDZ-JKFIT
  @DF-RKS Final Energy:  -113.32102768512451
    Total Energy =                       -113.3210276851245055
    Molecular point group: c2v
  Basis Set: CC-PVDZ
    Blend: CC-PVDZ
  Basis Set: (CC-PVDZ AUX)
    Blend: CC-PVDZ-JKFIT
  @DF-RKS Final Energy:  -113.32102768512854
    Total Energy =                       -113.3210276851285414
  Basis Set: CC-PVDZ
    Blend: CC-PVDZ
  Basis Set: (CC-PVDZ AUX)
    Blend: CC-PVDZ-JKFIT
  Basis Set: CC-PVDZ
    Blend: CC-PVDZ
  Basis Set: (CC-PVDZ AUX)
    Blend: CC-PVDZ-JKFIT
  @DF-RKS Final Energy:  -113.32102768512854
    Total Energy =                       -113.3210276851285414
  Basis Set: CC-PVDZ
  @DF-RKS Final Energy:  -113.32107835041761
    Total Energy =                       -113.3210783504176078
  @DF-RKS Final Energy:  -113.32097281159108
    Total Energy =                       -113.3209728115910764
  Basis Set: (CC-PVDZ AUX)
    Blend: CC-PVDZ-JKFIT
  Basis Set: CC-PVDZ
    Blend: CC-PVDZ
  Basis Set: (CC-PVDZ AUX)
    Blend: CC-PVDZ-JKFIT
  @DF-RKS Final Energy:  -113.32102766188082
    Total Energy =                       -113.3210276618808194
  Basis Set: CC-PVDZ
    Blend: CC-PVDZ
  Basis Set: (CC-PVDZ AUX)
    Blend: CC-PVDZ-JKFIT
    Molecular point group: cs
  Charge       = 0
  Multiplicity = 1
  Basis Set: CC-PVDZ
    Blend: CC-PVDZ
  Basis Set: (CC-PVDZ AUX)
    Blend: CC-PVDZ-JKFIT

    Orbital Energies [Eh]
    ---------------------

    Doubly Occupied:

       1Ap   -19.249588     2Ap   -10.308120     3Ap    -1.156582
       4Ap    -0.573972     1App   -0.467020     5Ap    -0.467020
       6Ap    -0.374768

  @DF-RKS Final Energy:  -113.32102766187869

   => Energetics <=

    Nuclear Repulsion Energy =             22.1513379928885605
    One-Electron Energy =                -197.6758116663383475
    Two-Electron Energy =                  73.4306257637211246
    DFT Exchange-Correlation Energy =     -11.2271797521500218
    Empirical Dispersion Energy =           0.0000000000000000
    VV10 Nonlocal Energy =                  0.0000000000000000
    Total Energy =                       -113.3210276618786878

  Dipole Moment: [D]
     X:     0.0000      Y:    -0.0001      Z:     0.1384     Total:     0.1384

    Molecular point group: cs

    Geometry (in Angstrom), charge = 0, multiplicity = 1:

       Center              X                  Y                   Z               Mass
    ------------   -----------------  -----------------  -----------------  -----------------
         O            0.000000000000    -0.000433142923     0.491523556581    15.994914619570
         C            0.000000000000     0.000577340340    -0.655156443419    12.000000000000

  Basis Set: CC-PVDZ
    Blend: CC-PVDZ
  Basis Set: (CC-PVDZ AUX)
    Blend: CC-PVDZ-JKFIT

  -Total Gradient:
     Atom            X                  Y                   Z
    ------   -----------------  -----------------  -----------------
       1        0.000000000000    -0.000024348624     0.027630422804
       2        0.000000000000     0.000024353571    -0.027636036554

  Vibration                       4                   5                   6
  Freq [cm^-1]                 221.6974            221.6974           2109.1090
  Irrep                           B2                  B1                  A1
  Reduced mass [u]             13.4388             13.4388             13.4388
  Force const [mDyne/A]         0.3892              0.3892             35.2215

  ==> Thermochemistry Components <==

  Entropy, S
    Electronic S            0.000 [cal/(mol K)]        0.000 [J/(mol K)]       0.00000000 [mEh/K] (multiplicity = 1)
    Translational S        35.923 [cal/(mol K)]      150.302 [J/(mol K)]       0.05724692 [mEh/K] (mol. weight = 27.9949 [u], P = 101325.00 [Pa])
    Rotational S           11.343 [cal/(mol K)]       47.458 [J/(mol K)]       0.01807582 [mEh/K] (symmetry no. = 1)
    Vibrational S           3.891 [cal/(mol K)]       16.281 [J/(mol K)]       0.00620104 [mEh/K]
  Total S                  51.157 [cal/(mol K)]      214.041 [J/(mol K)]       0.08152379 [mEh/K]
  Correction S              0.000 [cal/(mol K)]        0.000 [J/(mol K)]       0.00000000 [mEh/K]

  Constant volume heat capacity, Cv
    Electronic Cv           0.000 [cal/(mol K)]        0.000 [J/(mol K)]       0.00000000 [mEh/K]
    Translational Cv        2.981 [cal/(mol K)]       12.472 [J/(mol K)]       0.00475022 [mEh/K]
    Rotational Cv           1.987 [cal/(mol K)]        8.314 [J/(mol K)]       0.00316681 [mEh/K]
    Vibrational Cv          3.624 [cal/(mol K)]       15.162 [J/(mol K)]       0.00577505 [mEh/K]
  Total Cv                  8.592 [cal/(mol K)]       35.949 [J/(mol K)]       0.01369208 [mEh/K]
  Correction Cv             0.000 [cal/(mol K)]        0.000 [J/(mol K)]       0.00000000 [mEh/K]

  Constant pressure heat capacity, Cp
    Electronic Cp           0.000 [cal/(mol K)]        0.000 [J/(mol K)]       0.00000000 [mEh/K]
    Translational Cp        4.968 [cal/(mol K)]       20.786 [J/(mol K)]       0.00791703 [mEh/K]
    Rotational Cp           1.987 [cal/(mol K)]        8.314 [J/(mol K)]       0.00316681 [mEh/K]
    Vibrational Cp          3.624 [cal/(mol K)]       15.162 [J/(mol K)]       0.00577505 [mEh/K]
  Total Cp                 10.579 [cal/(mol K)]       44.263 [J/(mol K)]       0.01685889 [mEh/K]
  Correction Cp             0.000 [cal/(mol K)]        0.000 [J/(mol K)]       0.00000000 [mEh/K]

  ==> Thermochemistry Energy Analysis <==

  Raw electronic energy, E0
  Total E0, Electronic energy at well bottom at 0 [K]                 -113.32102769 [Eh]

  Zero-point energy, ZPE_vib = Sum_i nu_i / 2
    Electronic ZPE          0.000 [kcal/mol]        0.000 [kJ/mol]       0.00000000 [Eh]
    Translational ZPE       0.000 [kcal/mol]        0.000 [kJ/mol]       0.00000000 [Eh]
    Rotational ZPE          0.000 [kcal/mol]        0.000 [kJ/mol]       0.00000000 [Eh]
    Vibrational ZPE         3.649 [kcal/mol]       15.267 [kJ/mol]       0.00581503 [Eh]        1276.252 [cm^-1]
  Correction ZPE            3.649 [kcal/mol]       15.267 [kJ/mol]       0.00581503 [Eh]        1276.252 [cm^-1]
  Total ZPE, Electronic energy at 0 [K]                               -113.31521265 [Eh]

  Thermal Energy, E (includes ZPE)
    Electronic E            0.000 [kcal/mol]        0.000 [kJ/mol]       0.00000000 [Eh]
    Translational E         0.889 [kcal/mol]        3.718 [kJ/mol]       0.00141628 [Eh]
    Rotational E            0.592 [kcal/mol]        2.479 [kJ/mol]       0.00094418 [Eh]
    Vibrational E           4.311 [kcal/mol]       18.038 [kJ/mol]       0.00687041 [Eh]
  Correction E              5.792 [kcal/mol]       24.236 [kJ/mol]       0.00923087 [Eh]
  Total E, Electronic energy at  298.15 [K]                           -113.31179682 [Eh]

  Enthalpy, H_trans = E_trans + k_B * T
    Electronic H            0.000 [kcal/mol]        0.000 [kJ/mol]       0.00000000 [Eh]
    Translational H         1.481 [kcal/mol]        6.197 [kJ/mol]       0.00236046 [Eh]
    Rotational H            0.592 [kcal/mol]        2.479 [kJ/mol]       0.00094418 [Eh]
    Vibrational H           4.311 [kcal/mol]       18.038 [kJ/mol]       0.00687041 [Eh]
  Correction H              6.385 [kcal/mol]       26.715 [kJ/mol]       0.01017505 [Eh]
  Total H, Enthalpy at  298.15 [K]                                    -113.31085263 [Eh]

  Gibbs free energy, G = H - T * S
    Electronic G            0.000 [kcal/mol]        0.000 [kJ/mol]       0.00000000 [Eh]
    Translational G        -9.229 [kcal/mol]      -38.615 [kJ/mol]      -0.01470771 [Eh]
    Rotational G           -2.789 [kcal/mol]      -11.671 [kJ/mol]      -0.00444512 [Eh]
    Vibrational G           3.151 [kcal/mol]       13.184 [kJ/mol]       0.00502157 [Eh]
  Correction G             -8.868 [kcal/mol]      -37.102 [kJ/mol]      -0.01413127 [Eh]
  Total G, Free enthalpy at  298.15 [K]                               -113.33515895 [Eh]

*** Psi4 exiting successfully. Buy a developer a beer!
