                               Psi4 1.3.2 release

  ==> Input File <==

--------------------------------------------------------------------------
set basis  6-311++G**
molecule {
0 1
   C       -1.22151       -0.69325        0.00000
   C       -1.21114        0.71122        0.00000
   C       -0.01037       -1.40452        0.00000
   C        0.01037        1.40452        0.00000
   C        1.21114       -0.71122        0.00000
   C        1.22151        0.69325        0.00000
   H       -2.17311       -1.23332        0.00000
   H       -2.15464        1.26533        0.00000
   H       -0.01848       -2.49865        0.00000
   H        0.01848        2.49865        0.00000
   H        2.15464       -1.26533        0.00000
   H        2.17311        1.23332        0.00000
}
energy('B3LYP')
frequencies('B3LYP')
--------------------------------------------------------------------------

    Molecular point group: c2h
  Charge       = 0
  Multiplicity = 1
  Basis Set: 6-311++G**
    Blend: 6-311++G**
  Basis Set: (6-311++G** AUX)
    Blend: AUG-CC-PVTZ-JKFIT
  @DF-RKS Final Energy:  -232.31040994202027
    Total Energy =                       -232.3104099420202715
    Molecular point group: c2h
  Basis Set: 6-311++G**
    Blend: 6-311++G**
  Basis Set: (6-311++G** AUX)
    Blend: AUG-CC-PVTZ-JKFIT
  @DF-RKS Final Energy:  -232.31040993997991
    Total Energy =                       -232.3104099399799054
  Basis Set: 6-311++G**
    Blend: 6-311++G**
  Basis Set: (6-311++G** AUX)
    Blend: AUG-CC-PVTZ-JKFIT
  Basis Set: 6-311++G**
    Blend: 6-311++G**
  Basis Set: (6-311++G** AUX)
    Blend: AUG-CC-PVTZ-JKFIT
  @DF-RKS Final Energy:  -232.31040994483038
    Total Energy =                       -232.3104099448304112
  Basis Set: 6-311++G**
  @DF-RKS Final Energy:  -232.31041747752610
    Total Energy =                       -232.3104174775261299
  @DF-RKS Final Energy:  -232.31042789989209
    Total Energy =                       -232.3104278998920904
  @DF-RKS Final Energy:  -232.31041034161231
    Total Energy =                       -232.3104103416123110
  @DF-RKS Final Energy:  -232.31042340798467
    Total Energy =                       -232.3104234079847004
  @DF-RKS Final Energy:  -232.31041661817210
    Total Energy =                       -232.3104166181721268
  @DF-RKS Final Energy:  -232.31042611677844
    Total Energy =                       -232.3104261167784443
  @DF-RKS Final Energy:  -232.31041210471923
    Total Energy =                       -232.3104121047192336
  @DF-RKS Final Energy:  -232.31041380834208
    Total Energy =                       -232.3104138083420480
  @DF-RKS Final Energy:  -232.31041755158915
    Total Energy =                       -232.3104175515891257
  @DF-RKS Final Energy:  -232.31042060122164
    Total Energy =                       -232.3104206012216366
  @DF-RKS Final Energy:  -232.31041814091640
    Total Energy =                       -232.3104181409163687
  @DF-RKS Final Energy:  -232.31042970059272
    Total Energy =                       -232.3104297005927492
  @DF-RKS Final Energy:  -232.31037773309862
    Total Energy =                       -232.3103777330985906
  @DF-RKS Final Energy:  -232.31046209112202
    Total Energy =                       -232.3104620911220195
  @DF-RKS Final Energy:  -232.31039017074022
    Total Energy =                       -232.3103901707402201
  @DF-RKS Final Energy:  -232.31043706491204
    Total Energy =                       -232.3104370649120654
  @DF-RKS Final Energy:  -232.31037600393398
    Total Energy =                       -232.3103760039339818
  @DF-RKS Final Energy:  -232.31046683481964
    Total Energy =                       -232.3104668348196071
  @DF-RKS Final Energy:  -232.31040962055977
    Total Energy =                       -232.3104096205597671
  @DF-RKS Final Energy:  -232.31040959681781
    Total Energy =                       -232.3104095968177774
  @DF-RKS Final Energy:  -232.31040956373423
    Total Energy =                       -232.3104095637341970
  @DF-RKS Final Energy:  -232.31040948249051
    Total Energy =                       -232.3104094824905133
  @DF-RKS Final Energy:  -232.31040974814820
    Total Energy =                       -232.3104097481482029
  @DF-RKS Final Energy:  -232.31040974995165
    Total Energy =                       -232.3104097499516456
  @DF-RKS Final Energy:  -232.31040969474356
    Total Energy =                       -232.3104096947435551
  @DF-RKS Final Energy:  -232.31040957844093
    Total Energy =                       -232.3104095784409537
  @DF-RKS Final Energy:  -232.31040956832749
    Total Energy =                       -232.3104095683274579
  @DF-RKS Final Energy:  -232.31040900613507
    Total Energy =                       -232.3104090061350462
  @DF-RKS Final Energy:  -232.31040898881821
    Total Energy =                       -232.3104089888182386
  @DF-RKS Final Energy:  -232.31040883428165
    Total Energy =                       -232.3104088342816453
  @DF-RKS Final Energy:  -232.31040896138933
    Total Energy =                       -232.3104089613893564
  @DF-RKS Final Energy:  -232.31040781633854
    Total Energy =                       -232.3104078163385395
  @DF-RKS Final Energy:  -232.31040722147065
    Total Energy =                       -232.3104072214706548
  @DF-RKS Final Energy:  -232.31040718837701
    Total Energy =                       -232.3104071883769848
  @DF-RKS Final Energy:  -232.31040781778776
    Total Energy =                       -232.3104078177877625
  Basis Set: (6-311++G** AUX)
    Blend: AUG-CC-PVTZ-JKFIT
  Basis Set: 6-311++G**
    Blend: 6-311++G**
  Basis Set: (6-311++G** AUX)
    Blend: AUG-CC-PVTZ-JKFIT
  @DF-RKS Final Energy:  -232.31040806748771
    Total Energy =                       -232.3104080674877423
  Basis Set: 6-311++G**
    Blend: 6-311++G**
  Basis Set: (6-311++G** AUX)
    Blend: AUG-CC-PVTZ-JKFIT
    Molecular point group: cs
  Charge       = 0
  Multiplicity = 1
  Basis Set: 6-311++G**
    Blend: 6-311++G**
  Basis Set: (6-311++G** AUX)
    Blend: AUG-CC-PVTZ-JKFIT

    Orbital Energies [Eh]
    ---------------------

    Doubly Occupied:

       1Ap   -10.183322     2Ap   -10.183088     3Ap   -10.183057
       4Ap   -10.182563     5Ap   -10.182533     6Ap   -10.182277
       7Ap    -0.855334     8Ap    -0.748916     9Ap    -0.748912
      10Ap    -0.606314    11Ap    -0.606304    12Ap    -0.525868
      13Ap    -0.466250    14Ap    -0.450954    15Ap    -0.426353
      16Ap    -0.426347     1App   -0.370227    17Ap    -0.350788
      18Ap    -0.350764     2App   -0.259217     3App   -0.259211

  @DF-RKS Final Energy:  -232.31040693582887

   => Energetics <=

    Nuclear Repulsion Energy =            202.0133184684007119
    One-Electron Energy =                -711.3109974046781190
    Two-Electron Energy =                 305.1241053571640691
    DFT Exchange-Correlation Energy =     -28.1368333567154956
    Empirical Dispersion Energy =           0.0000000000000000
    VV10 Nonlocal Energy =                  0.0000000000000000
    Total Energy =                       -232.3104069358288370

  Dipole Moment: [D]
     X:    -0.0010      Y:    -0.0017      Z:     0.0000     Total:     0.0019

    Molecular point group: cs

    Geometry (in Angstrom), charge = 0, multiplicity = 1:

       Center              X                  Y                   Z               Mass
    ------------   -----------------  -----------------  -----------------  -----------------
         C           -1.221510000000    -0.693250000000     0.000000000000    12.000000000000
         C           -1.211140000000     0.711220000000     0.000000000000    12.000000000000
         C           -0.010370000000    -1.404520000000     0.000000000000    12.000000000000
         C            0.010370000000     1.404520000000     0.000000000000    12.000000000000
         C            1.211140000000    -0.711220000000     0.000000000000    12.000000000000
         C            1.221510000000     0.693250000000     0.000000000000    12.000000000000
         H           -2.173110000000    -1.233320000000     0.000000000000     1.007825032230
         H           -2.154640000000     1.264012202829     0.000000000000     1.007825032230
         H           -0.018480000000    -2.497332202829     0.000000000000     1.007825032230
         H            0.018480000000     2.499967797171     0.000000000000     1.007825032230
         H            2.154640000000    -1.266647797171     0.000000000000     1.007825032230
         H            2.173110000000     1.233320000000     0.000000000000     1.007825032230

  Basis Set: 6-311++G**
    Blend: 6-311++G**
  Basis Set: (6-311++G** AUX)
    Blend: AUG-CC-PVTZ-JKFIT

  -Total Gradient:
     Atom            X                  Y                   Z
    ------   -----------------  -----------------  -----------------
       1       -0.002488283597    -0.001328877770     0.000000000000
       2       -0.002636382929     0.001641428804     0.000000000000
       3        0.000020887132    -0.003614361435     0.000000000000
       4        0.000048707792     0.002018853628     0.000000000000
       5        0.002116484177    -0.001062870454     0.000000000000
       6        0.002332675121     0.001329578408     0.000000000000
       7       -0.005723384179    -0.003254741106     0.000000000000
       8       -0.005380450737     0.003017672940     0.000000000000
       9       -0.000051655284    -0.005740216843     0.000000000000
      10        0.000052512209     0.007411318951     0.000000000000
      11        0.005977056542    -0.003666628818     0.000000000000
      12        0.005731998469     0.003248822425     0.000000000000

  Vibration                       7                   8                   9
  Freq [cm^-1]                 431.0766            431.3464            617.5038
  Irrep                           Au                  Au                  Ag
  Reduced mass [u]              3.0193              3.0182              6.3743
  Force const [mDyne/A]         0.3306              0.3309              1.4321

  Vibration                       10                  11                  12
  Freq [cm^-1]                 628.5912            724.9096            739.3556
  Irrep                           Ag                  Bg                  Au
  Reduced mass [u]              6.1783              3.7894              1.0848
  Force const [mDyne/A]         1.4383              1.1732              0.3494

  Vibration                       13                  14                  15
  Freq [cm^-1]                 897.8809            897.9400            983.7090
  Irrep                           Bg                  Bg                  Ag
  Reduced mass [u]              1.2479              1.2479              6.0249
  Force const [mDyne/A]         0.5927              0.5928              3.4351

  Vibration                       16                  17                  18
  Freq [cm^-1]                1005.2701           1005.3503           1018.9775
  Irrep                           Au                  Au                  Bu
  Reduced mass [u]              1.3435              1.3436              6.5306
  Force const [mDyne/A]         0.7999              0.8001              3.9952

  Vibration                       19                  20                  21
  Freq [cm^-1]                1034.6607           1050.2242           1050.8772
  Irrep                           Bg                  Bu                  Bu
  Reduced mass [u]              1.2320              1.8335              1.8322
  Force const [mDyne/A]         0.7771              1.1915              1.1921

  Vibration                       22                  23                  24
  Freq [cm^-1]                1172.8343           1198.6943           1202.9704
  Irrep                           Bu                  Ag                  Ag
  Reduced mass [u]              1.3186              1.1740              1.1657
  Force const [mDyne/A]         1.0686              0.9939              0.9939

  Vibration                       25                  26                  27
  Freq [cm^-1]                1299.7816           1390.9808           1503.5274
  Irrep                           Bu                  Ag                  Bu
  Reduced mass [u]              3.1528              1.2480              1.8564
  Force const [mDyne/A]         3.1382              1.4226              2.4726

  Vibration                       28                  29                  30
  Freq [cm^-1]                1503.6645           1598.6905           1609.5966
  Irrep                           Bu                  Ag                  Ag
  Reduced mass [u]              1.8578              4.4815              4.7156
  Force const [mDyne/A]         2.4749              6.7484              7.1982

  Vibration                       31                  32                  33
  Freq [cm^-1]                3068.0144           3077.8339           3078.3878
  Irrep                           Bu                  Ag                  Ag
  Reduced mass [u]              1.0841              1.0877              1.0879
  Force const [mDyne/A]         6.0120              6.0706              6.0739

  Vibration                       34                  35                  36
  Freq [cm^-1]                3093.8069           3094.4369           3103.9930
  Irrep                           Bu                  Bu                  Ag
  Reduced mass [u]              1.0950              1.0949              1.0993
  Force const [mDyne/A]         6.1750              6.1769              6.2403

  ==> Thermochemistry Components <==

  Entropy, S
    Electronic S            0.000 [cal/(mol K)]        0.000 [J/(mol K)]       0.00000000 [mEh/K] (multiplicity = 1)
    Translational S        38.979 [cal/(mol K)]      163.089 [J/(mol K)]       0.06211726 [mEh/K] (mol. weight = 78.0470 [u], P = 101325.00 [Pa])
    Rotational S           24.318 [cal/(mol K)]      101.746 [J/(mol K)]       0.03875307 [mEh/K] (symmetry no. = 2)
    Vibrational S           4.172 [cal/(mol K)]       17.454 [J/(mol K)]       0.00664795 [mEh/K]
  Total S                  67.469 [cal/(mol K)]      282.289 [J/(mol K)]       0.10751828 [mEh/K]
  Correction S              0.000 [cal/(mol K)]        0.000 [J/(mol K)]       0.00000000 [mEh/K]

  Constant volume heat capacity, Cv
    Electronic Cv           0.000 [cal/(mol K)]        0.000 [J/(mol K)]       0.00000000 [mEh/K]
    Translational Cv        2.981 [cal/(mol K)]       12.472 [J/(mol K)]       0.00475022 [mEh/K]
    Rotational Cv           2.981 [cal/(mol K)]       12.472 [J/(mol K)]       0.00475022 [mEh/K]
    Vibrational Cv         10.943 [cal/(mol K)]       45.785 [J/(mol K)]       0.01743850 [mEh/K]
  Total Cv                 16.904 [cal/(mol K)]       70.728 [J/(mol K)]       0.02693894 [mEh/K]
  Correction Cv             0.000 [cal/(mol K)]        0.000 [J/(mol K)]       0.00000000 [mEh/K]

  Constant pressure heat capacity, Cp
    Electronic Cp           0.000 [cal/(mol K)]        0.000 [J/(mol K)]       0.00000000 [mEh/K]
    Translational Cp        4.968 [cal/(mol K)]       20.786 [J/(mol K)]       0.00791703 [mEh/K]
    Rotational Cp           2.981 [cal/(mol K)]       12.472 [J/(mol K)]       0.00475022 [mEh/K]
    Vibrational Cp         10.943 [cal/(mol K)]       45.785 [J/(mol K)]       0.01743850 [mEh/K]
  Total Cp                 18.892 [cal/(mol K)]       79.043 [J/(mol K)]       0.03010575 [mEh/K]
  Correction Cp             0.000 [cal/(mol K)]        0.000 [J/(mol K)]       0.00000000 [mEh/K]

  ==> Thermochemistry Energy Analysis <==

  Raw electronic energy, E0
  Total E0, Electronic energy at well bottom at 0 [K]                 -232.31040994 [Eh]

  Zero-point energy, ZPE_vib = Sum_i nu_i / 2
    Electronic ZPE          0.000 [kcal/mol]        0.000 [kJ/mol]       0.00000000 [Eh]
    Translational ZPE       0.000 [kcal/mol]        0.000 [kJ/mol]       0.00000000 [Eh]
    Rotational ZPE          0.000 [kcal/mol]        0.000 [kJ/mol]       0.00000000 [Eh]
    Vibrational ZPE        62.208 [kcal/mol]      260.277 [kJ/mol]       0.09913420 [Eh]       21757.443 [cm^-1]
  Correction ZPE           62.208 [kcal/mol]      260.277 [kJ/mol]       0.09913420 [Eh]       21757.443 [cm^-1]
  Total ZPE, Electronic energy at 0 [K]                               -232.21127574 [Eh]

  Thermal Energy, E (includes ZPE)
    Electronic E            0.000 [kcal/mol]        0.000 [kJ/mol]       0.00000000 [Eh]
    Translational E         0.889 [kcal/mol]        3.718 [kJ/mol]       0.00141628 [Eh]
    Rotational E            0.889 [kcal/mol]        3.718 [kJ/mol]       0.00141628 [Eh]
    Vibrational E          63.143 [kcal/mol]      264.192 [kJ/mol]       0.10062526 [Eh]
  Correction E             64.921 [kcal/mol]      271.628 [kJ/mol]       0.10345781 [Eh]
  Total E, Electronic energy at  298.15 [K]                           -232.20695213 [Eh]

  Enthalpy, H_trans = E_trans + k_B * T
    Electronic H            0.000 [kcal/mol]        0.000 [kJ/mol]       0.00000000 [Eh]
    Translational H         1.481 [kcal/mol]        6.197 [kJ/mol]       0.00236046 [Eh]
    Rotational H            0.889 [kcal/mol]        3.718 [kJ/mol]       0.00141628 [Eh]
    Vibrational H          63.143 [kcal/mol]      264.192 [kJ/mol]       0.10062526 [Eh]
  Correction H             65.513 [kcal/mol]      274.107 [kJ/mol]       0.10440200 [Eh]
  Total H, Enthalpy at  298.15 [K]                                    -232.20600795 [Eh]

  Gibbs free energy, G = H - T * S
    Electronic G            0.000 [kcal/mol]        0.000 [kJ/mol]       0.00000000 [Eh]
    Translational G       -10.140 [kcal/mol]      -42.428 [kJ/mol]      -0.01615980 [Eh]
    Rotational G           -6.362 [kcal/mol]      -26.617 [kJ/mol]      -0.01013795 [Eh]
    Vibrational G          61.900 [kcal/mol]      258.988 [kJ/mol]       0.09864318 [Eh]
  Correction G             45.397 [kcal/mol]      189.943 [kJ/mol]       0.07234542 [Eh]
  Total G, Free enthalpy at  298.15 [K]                               -232.23806452 [Eh]

*** Psi4 exiting successfully. Buy a developer a beer!
