                               Psi4 1.3.2 release

  ==> Input File <==

--------------------------------------------------------------------------
set basis  6-31+G*
molecule {
0 1
   C        0.32153        0.81326        0.00000
   C       -0.86505       -0.12817        0.00000
   C        0.54353       -0.68508        0.00000
   H        0.53795        1.36069       -0.92039
   H        0.53795        1.36069        0.92039
   H       -1.44742       -0.21449        0.92034
   H       -1.44742       -0.21449       -0.92034
   H        0.90937       -1.14629       -0.92037
   H        0.90937       -1.14629        0.92037
}
energy('scf')
frequencies('scf')
--------------------------------------------------------------------------

    Molecular point group: cs
  Charge       = 0
  Multiplicity = 1
  Basis Set: 6-31+G*
    Blend: 6-31+G*
  Basis Set: (6-31+G* AUX)
    Blend: HEAVY-AUG-CC-PVDZ-JKFIT
  @DF-RHF Final Energy:  -117.05925753845264
    Total Energy =                       -117.0592575384526413
    Molecular point group: cs
  Basis Set: 6-31+G*
    Blend: 6-31+G*
  Basis Set: (6-31+G* AUX)
    Blend: HEAVY-AUG-CC-PVDZ-JKFIT
  @DF-RHF Final Energy:  -117.05925753892161
    Total Energy =                       -117.0592575389216137
  Basis Set: 6-31+G*
    Blend: 6-31+G*
  Basis Set: (6-31+G* AUX)
    Blend: HEAVY-AUG-CC-PVDZ-JKFIT

  -Total Gradient:
     Atom            X                  Y                   Z
    ------   -----------------  -----------------  -----------------
       1        0.001273657637     0.003222652984     0.000000000000
       2       -0.003399239418    -0.000499502837     0.000000000000
       3        0.002152161697    -0.002700338737     0.000000000000
       4        0.002140196148     0.005417150246    -0.010823343253
       5        0.002140196148     0.005417150246     0.010823343253
       6       -0.005771952832    -0.000858387008     0.010812464467
       7       -0.005771952832    -0.000858387008    -0.010812464467
       8        0.003618466726    -0.004570168943    -0.010819119730
       9        0.003618466726    -0.004570168943     0.010819119730

  Charge       = 0
  Multiplicity = 1
  Basis Set: 6-31+G*
    Blend: 6-31+G*
  Basis Set: (6-31+G* AUX)
    Blend: HEAVY-AUG-CC-PVDZ-JKFIT

    Orbital Energies [Eh]
    ---------------------

    Doubly Occupied:

       1Ap   -11.230201     2Ap   -11.229250     3Ap   -11.229246
       4Ap    -1.127182     5Ap    -0.815257     6Ap    -0.815251
       1App   -0.664526     7Ap    -0.623489     2App   -0.511978
       3App   -0.511963     8Ap    -0.417288     9Ap    -0.417280

  @DF-RHF Final Energy:  -117.05925753892073

   => Energetics <=

    Nuclear Repulsion Energy =             75.2814648090140253
    One-Electron Energy =                -305.4956246652933487
    Two-Electron Energy =                 113.1549023173585766
    Total Energy =                       -117.0592575389207326

  Dipole Moment: [D]
     X:    -0.0001      Y:    -0.0001      Z:     0.0000     Total:     0.0001

    Molecular point group: cs
  Basis Set: 6-31+G*
    Blend: 6-31+G*
  Basis Set: (6-31+G* AUX)
    Blend: HEAVY-AUG-CC-PVDZ-JKFIT
  Basis Set: (6-31+G* AUX)
    Blend: HEAVY-AUG-CC-PVDZ-JKFIT
    Molecular point group: cs

    Geometry (in Angstrom), charge = 0, multiplicity = 1:

       Center              X                  Y                   Z               Mass
    ------------   -----------------  -----------------  -----------------  -----------------
         C            0.321531939855     0.813261460475     0.000000000000    12.000000000000
         C           -0.865048060145    -0.128168539525     0.000000000000    12.000000000000
         C            0.543531939855    -0.685078539525     0.000000000000    12.000000000000
         H            0.537951939855     1.360691460475    -0.920390000000     1.007825032230
         H            0.537951939855     1.360691460475     0.920390000000     1.007825032230
         H           -1.447418060145    -0.214488539525     0.920340000000     1.007825032230
         H           -1.447418060145    -0.214488539525    -0.920340000000     1.007825032230
         H            0.909371939855    -1.146288539525    -0.920370000000     1.007825032230
         H            0.909371939855    -1.146288539525     0.920370000000     1.007825032230

  Basis Set: 6-31+G*
    Blend: 6-31+G*
  Basis Set: (6-31+G* AUX)
    Blend: HEAVY-AUG-CC-PVDZ-JKFIT

  Vibration                       7                   8                   9
  Freq [cm^-1]                 883.9226            883.9266            916.8530
  Irrep                          App                 App                  Ap
  Reduced mass [u]              1.0215              1.0215              3.9386
  Force const [mDyne/A]         0.4703              0.4703              1.9507

  IR activ [km/mol]             0.0000              0.0000             29.6054

  Vibration                       10                  11                  12
  Freq [cm^-1]                 916.8900            988.7816           1223.6026
  Irrep                           Ap                 App                  Ap
  Reduced mass [u]              3.9387              1.0440              1.2368
  Force const [mDyne/A]         1.9509              0.6014              1.0910

  IR activ [km/mol]            29.5961              0.0027              6.2743

  Vibration                       13                  14                  15
  Freq [cm^-1]                1223.6122           1252.9865           1260.3780
  Irrep                           Ap                  Ap                  Ap
  Reduced mass [u]              1.2368              2.9801              1.4254
  Force const [mDyne/A]         1.0910              2.7566              1.3341

  IR activ [km/mol]             6.2723              0.0000              0.0000

  Vibration                       16                  17                  18
  Freq [cm^-1]                1293.7905           1347.9883           1347.9917
  Irrep                          App                 App                 App
  Reduced mass [u]              1.0078              1.4481              1.4481
  Force const [mDyne/A]         0.9939              1.5504              1.5504

  IR activ [km/mol]             0.0000              0.0000              0.0000

  Vibration                       19                  20                  21
  Freq [cm^-1]                1624.3096           1624.3286           1678.3974
  Irrep                           Ap                  Ap                  Ap
  Reduced mass [u]              1.0929              1.0929              1.2623
  Force const [mDyne/A]         1.6989              1.6989              2.0951

  IR activ [km/mol]             0.0297              0.0297              0.0000

  Vibration                       22                  23                  24
  Freq [cm^-1]                3150.9565           3150.9743           3164.6498
  Irrep                           Ap                  Ap                  Ap
  Reduced mass [u]              1.0505              1.0506              1.0638
  Force const [mDyne/A]         6.1454              6.1455              6.2770

  IR activ [km/mol]            38.6750             38.6807              0.0000

  Vibration                       25                  26                  27
  Freq [cm^-1]                3221.4359           3221.4497           3245.4299
  Irrep                          App                 App                 App
  Reduced mass [u]              1.1215              1.1215              1.1162
  Force const [mDyne/A]         6.8569              6.8570              6.9268

  IR activ [km/mol]             0.0000              0.0000             56.7696

  ==> Thermochemistry Components <==

  Entropy, S
    Electronic S            0.000 [cal/(mol K)]        0.000 [J/(mol K)]       0.00000000 [mEh/K] (multiplicity = 1)
    Translational S        37.135 [cal/(mol K)]      155.375 [J/(mol K)]       0.05917914 [mEh/K] (mol. weight = 42.0470 [u], P = 101325.00 [Pa])
    Rotational S           21.699 [cal/(mol K)]       90.789 [J/(mol K)]       0.03457982 [mEh/K] (symmetry no. = 1)
    Vibrational S           0.889 [cal/(mol K)]        3.720 [J/(mol K)]       0.00141703 [mEh/K]
  Total S                  59.724 [cal/(mol K)]      249.885 [J/(mol K)]       0.09517599 [mEh/K]
  Correction S              0.000 [cal/(mol K)]        0.000 [J/(mol K)]       0.00000000 [mEh/K]

  Constant volume heat capacity, Cv
    Electronic Cv           0.000 [cal/(mol K)]        0.000 [J/(mol K)]       0.00000000 [mEh/K]
    Translational Cv        2.981 [cal/(mol K)]       12.472 [J/(mol K)]       0.00475022 [mEh/K]
    Rotational Cv           2.981 [cal/(mol K)]       12.472 [J/(mol K)]       0.00475022 [mEh/K]
    Vibrational Cv          3.650 [cal/(mol K)]       15.273 [J/(mol K)]       0.00581736 [mEh/K]
  Total Cv                  9.612 [cal/(mol K)]       40.217 [J/(mol K)]       0.01531779 [mEh/K]
  Correction Cv             0.000 [cal/(mol K)]        0.000 [J/(mol K)]       0.00000000 [mEh/K]

  Constant pressure heat capacity, Cp
    Electronic Cp           0.000 [cal/(mol K)]        0.000 [J/(mol K)]       0.00000000 [mEh/K]
    Translational Cp        4.968 [cal/(mol K)]       20.786 [J/(mol K)]       0.00791703 [mEh/K]
    Rotational Cp           2.981 [cal/(mol K)]       12.472 [J/(mol K)]       0.00475022 [mEh/K]
    Vibrational Cp          3.650 [cal/(mol K)]       15.273 [J/(mol K)]       0.00581736 [mEh/K]
  Total Cp                 11.599 [cal/(mol K)]       48.531 [J/(mol K)]       0.01848460 [mEh/K]
  Correction Cp             0.000 [cal/(mol K)]        0.000 [J/(mol K)]       0.00000000 [mEh/K]

  ==> Thermochemistry Energy Analysis <==

  Raw electronic energy, E0
  Total E0, Electronic energy at well bottom at 0 [K]                 -117.05925754 [Eh]

  Zero-point energy, ZPE_vib = Sum_i nu_i / 2
    Electronic ZPE          0.000 [kcal/mol]        0.000 [kJ/mol]       0.00000000 [Eh]
    Translational ZPE       0.000 [kcal/mol]        0.000 [kJ/mol]       0.00000000 [Eh]
    Rotational ZPE          0.000 [kcal/mol]        0.000 [kJ/mol]       0.00000000 [Eh]
    Vibrational ZPE        53.784 [kcal/mol]      225.033 [kJ/mol]       0.08571071 [Eh]       18811.328 [cm^-1]
  Correction ZPE           53.784 [kcal/mol]      225.033 [kJ/mol]       0.08571071 [Eh]       18811.328 [cm^-1]
  Total ZPE, Electronic energy at 0 [K]                               -116.97354682 [Eh]

  Thermal Energy, E (includes ZPE)
    Electronic E            0.000 [kcal/mol]        0.000 [kJ/mol]       0.00000000 [Eh]
    Translational E         0.889 [kcal/mol]        3.718 [kJ/mol]       0.00141628 [Eh]
    Rotational E            0.889 [kcal/mol]        3.718 [kJ/mol]       0.00141628 [Eh]
    Vibrational E          54.004 [kcal/mol]      225.952 [kJ/mol]       0.08606046 [Eh]
  Correction E             55.781 [kcal/mol]      233.389 [kJ/mol]       0.08889301 [Eh]
  Total E, Electronic energy at  298.15 [K]                           -116.97036453 [Eh]

  Enthalpy, H_trans = E_trans + k_B * T
    Electronic H            0.000 [kcal/mol]        0.000 [kJ/mol]       0.00000000 [Eh]
    Translational H         1.481 [kcal/mol]        6.197 [kJ/mol]       0.00236046 [Eh]
    Rotational H            0.889 [kcal/mol]        3.718 [kJ/mol]       0.00141628 [Eh]
    Vibrational H          54.004 [kcal/mol]      225.952 [kJ/mol]       0.08606046 [Eh]
  Correction H             56.374 [kcal/mol]      235.868 [kJ/mol]       0.08983720 [Eh]
  Total H, Enthalpy at  298.15 [K]                                    -116.96942034 [Eh]

  Gibbs free energy, G = H - T * S
    Electronic G            0.000 [kcal/mol]        0.000 [kJ/mol]       0.00000000 [Eh]
    Translational G        -9.591 [kcal/mol]      -40.128 [kJ/mol]      -0.01528380 [Eh]
    Rotational G           -5.581 [kcal/mol]      -23.350 [kJ/mol]      -0.00889370 [Eh]
    Vibrational G          53.739 [kcal/mol]      224.842 [kJ/mol]       0.08563797 [Eh]
  Correction G             38.567 [kcal/mol]      161.364 [kJ/mol]       0.06146048 [Eh]
  Total G, Free enthalpy at  298.15 [K]                               -116.99779706 [Eh]

*** Psi4 exiting successfully. Buy a developer a beer!
