                               Psi4 1.3.2 release

  ==> Input File <==

--------------------------------------------------------------------------
set basis  6-31++g**
molecule {
0 1
   C       -0.61446        0.00000        0.00000
   C        0.61446        0.00000        0.00000
   H       -1.68923        0.00000        0.00000
   H        1.68923        0.00000        0.00000
}
energy('MP2')
frequencies('MP2')
--------------------------------------------------------------------------

    Molecular point group: d2h
  Charge       = 0
  Multiplicity = 1
  Basis Set: 6-31++G**
    Blend: 6-31++G**
  Basis Set: (6-31++G** AUX)
    Blend: AUG-CC-PVDZ-JKFIT
  @DF-RHF Final Energy:   -76.82328113286854
    Total Energy =                        -76.8232811328685443
  Basis Set: (6-31++G** AUX)
    Blend: AUG-CC-PVDZ-RI
	 Reference Energy          =     -76.8232811328685443 [Eh]
	 Singles Energy            =      -0.0000000000000000 [Eh]
	 Same-Spin Energy          =      -0.0651567292503173 [Eh]
	 Opposite-Spin Energy      =      -0.2092841384377756 [Eh]
	 Correlation Energy        =      -0.2744408676880929 [Eh]
	 Total Energy              =     -77.0977220005566437 [Eh]
	 SCS Total Energy          =     -77.0961410087439845 [Eh]
    Molecular point group: d2h
  Basis Set: 6-31++G**
    Blend: 6-31++G**
  Basis Set: (6-31++G** AUX)
    Blend: AUG-CC-PVDZ-JKFIT
  @DF-RHF Final Energy:   -76.82328113286840
    Total Energy =                        -76.8232811328684022
  Basis Set: (6-31++G** AUX)
  @DF-RHF Final Energy:   -76.82328113286840
    Total Energy =                        -76.8232811328684022
  @DF-RHF Final Energy:   -76.82312887050597
    Total Energy =                        -76.8231288705059683
  @DF-RHF Final Energy:   -76.82342820082104
    Total Energy =                        -76.8234282008210414
  @DF-RHF Final Energy:   -76.82317818136687
    Total Energy =                        -76.8231781813668704
  @DF-RHF Final Energy:   -76.82337389549136
    Total Energy =                        -76.8233738954913576
  @DF-RHF Final Energy:   -76.82328078825232
    Total Energy =                        -76.8232807882523190
  @DF-RHF Final Energy:   -76.82328078809340
    Total Energy =                        -76.8232807880933990
  @DF-RHF Final Energy:   -76.82328071438720
    Total Energy =                        -76.8232807143871810
  @DF-RHF Final Energy:   -76.82328071432451
    Total Energy =                        -76.8232807143245111
    Molecular point group: c2v
  Charge       = 0
  Multiplicity = 1
  Basis Set: 6-31++G**
    Blend: 6-31++G**
  Basis Set: (6-31++G** AUX)
    Blend: AUG-CC-PVDZ-JKFIT

    Orbital Energies [Eh]
    ---------------------

    Doubly Occupied:

       1A1   -11.261237     2A1   -11.258068     3A1    -1.024348
       4A1    -0.767641     5A1    -0.676061     1B2    -0.404165
       1B1    -0.404165

  @DF-RHF Final Energy:   -76.82327561630869

   => Energetics <=

    Nuclear Repulsion Energy =             24.3232393838559098
    One-Electron Energy =                -150.7016596354415299
    Two-Electron Energy =                  49.5551446352769247
    Total Energy =                        -76.8232756163087060

  Dipole Moment: [D]
     X:     0.0044      Y:     0.0000      Z:     0.0000     Total:     0.0044

  Basis Set: (6-31++G** AUX)
    Blend: AUG-CC-PVDZ-RI
    Molecular point group: c2v

    Geometry (in Angstrom), charge = 0, multiplicity = 1:

       Center              X                  Y                   Z               Mass
    ------------   -----------------  -----------------  -----------------  -----------------
         C           -0.614610333491     0.000000000000     0.000000000000    12.000000000000
         C            0.614309666509     0.000000000000     0.000000000000    12.000000000000
         H           -1.687440004874     0.000000000000     0.000000000000     1.007825032230
         H            1.691019995126     0.000000000000     0.000000000000     1.007825032230

  Basis Set: 6-31++G**
    Blend: 6-31++G**
  Basis Set: (6-31++G** AUX)
    Blend: AUG-CC-PVDZ-JKFIT
  Basis Set: (6-31++G** AUX)
    Blend: AUG-CC-PVDZ-JKFIT
	 Reference Energy          =     -76.8232756163086918 [Eh]
	 Singles Energy            =      -0.0000000000000000 [Eh]
	 Same-Spin Energy          =      -0.0651567614195310 [Eh]
	 Opposite-Spin Energy      =      -0.2092842429002722 [Eh]
	 Correlation Energy        =      -0.2744410043198032 [Eh]
	 Total Energy              =     -77.0977166206284892 [Eh]

	 ================> DF-SCS-MP2 Energies <==================
	-----------------------------------------------------------
	 SCS Same-Spin Scale       =       0.3333333333333333 [-]
	 SCS Opposite-Spin Scale   =       1.2000000000000000 [-]
	 SCS Same-Spin Energy      =      -0.0217189204731770 [Eh]
	 SCS Opposite-Spin Energy  =      -0.2511410914803267 [Eh]
	 SCS Correlation Energy    =      -0.2728600119535036 [Eh]
	 SCS Total Energy          =     -77.0961356282621892 [Eh]
	-----------------------------------------------------------

  -Total Gradient:
     Atom            X                  Y                   Z
    ------   -----------------  -----------------  -----------------
       1       -0.009602603263     0.000000000000     0.000000000000
       2        0.006667893495     0.000000000000     0.000000000000
       3       -0.007756876508     0.000000000000     0.000000000000
       4        0.010691586275     0.000000000000     0.000000000000

  Vibration                       6                   7                   8
  Freq [cm^-1]                 515.9100            515.9109            810.4461
  Irrep                          B1g                 B2g                 B2u
  Reduced mass [u]              1.5641              1.5641              1.0848
  Force const [mDyne/A]         0.2453              0.2453              0.4198

  Vibration                       9                   10                  11
  Freq [cm^-1]                 810.4462           1931.3975           3372.5153
  Irrep                          B1u                  Ag                 B3u
  Reduced mass [u]              1.0848              4.1072              1.0848
  Force const [mDyne/A]         0.4198              9.0270              7.2697

  Vibration                       12
  Freq [cm^-1]                3461.7862
  Irrep                           Ag
  Reduced mass [u]              1.2018
  Force const [mDyne/A]         8.4855

  ==> Thermochemistry Components <==

  Entropy, S
    Electronic S            0.000 [cal/(mol K)]        0.000 [J/(mol K)]       0.00000000 [mEh/K] (multiplicity = 1)
    Translational S        35.704 [cal/(mol K)]      149.387 [J/(mol K)]       0.05689862 [mEh/K] (mol. weight = 26.0157 [u], P = 101325.00 [Pa])
    Rotational S           10.952 [cal/(mol K)]       45.824 [J/(mol K)]       0.01745345 [mEh/K] (symmetry no. = 2)
    Vibrational S           1.639 [cal/(mol K)]        6.857 [J/(mol K)]       0.00261162 [mEh/K]
  Total S                  48.295 [cal/(mol K)]      202.068 [J/(mol K)]       0.07696369 [mEh/K]
  Correction S              0.000 [cal/(mol K)]        0.000 [J/(mol K)]       0.00000000 [mEh/K]

  Constant volume heat capacity, Cv
    Electronic Cv           0.000 [cal/(mol K)]        0.000 [J/(mol K)]       0.00000000 [mEh/K]
    Translational Cv        2.981 [cal/(mol K)]       12.472 [J/(mol K)]       0.00475022 [mEh/K]
    Rotational Cv           1.987 [cal/(mol K)]        8.314 [J/(mol K)]       0.00316681 [mEh/K]
    Vibrational Cv          3.712 [cal/(mol K)]       15.533 [J/(mol K)]       0.00591608 [mEh/K]
  Total Cv                  8.680 [cal/(mol K)]       36.319 [J/(mol K)]       0.01383310 [mEh/K]
  Correction Cv             0.000 [cal/(mol K)]        0.000 [J/(mol K)]       0.00000000 [mEh/K]

  Constant pressure heat capacity, Cp
    Electronic Cp           0.000 [cal/(mol K)]        0.000 [J/(mol K)]       0.00000000 [mEh/K]
    Translational Cp        4.968 [cal/(mol K)]       20.786 [J/(mol K)]       0.00791703 [mEh/K]
    Rotational Cp           1.987 [cal/(mol K)]        8.314 [J/(mol K)]       0.00316681 [mEh/K]
    Vibrational Cp          3.712 [cal/(mol K)]       15.533 [J/(mol K)]       0.00591608 [mEh/K]
  Total Cp                 10.668 [cal/(mol K)]       44.633 [J/(mol K)]       0.01699991 [mEh/K]
  Correction Cp             0.000 [cal/(mol K)]        0.000 [J/(mol K)]       0.00000000 [mEh/K]

  ==> Thermochemistry Energy Analysis <==

  Raw electronic energy, E0
  Total E0, Electronic energy at well bottom at 0 [K]                  -77.09772200 [Eh]

  Zero-point energy, ZPE_vib = Sum_i nu_i / 2
    Electronic ZPE          0.000 [kcal/mol]        0.000 [kJ/mol]       0.00000000 [Eh]
    Translational ZPE       0.000 [kcal/mol]        0.000 [kJ/mol]       0.00000000 [Eh]
    Rotational ZPE          0.000 [kcal/mol]        0.000 [kJ/mol]       0.00000000 [Eh]
    Vibrational ZPE        16.323 [kcal/mol]       68.297 [kJ/mol]       0.02601306 [Eh]        5709.206 [cm^-1]
  Correction ZPE           16.323 [kcal/mol]       68.297 [kJ/mol]       0.02601306 [Eh]        5709.206 [cm^-1]
  Total ZPE, Electronic energy at 0 [K]                                -77.07170894 [Eh]

  Thermal Energy, E (includes ZPE)
    Electronic E            0.000 [kcal/mol]        0.000 [kJ/mol]       0.00000000 [Eh]
    Translational E         0.889 [kcal/mol]        3.718 [kJ/mol]       0.00141628 [Eh]
    Rotational E            0.592 [kcal/mol]        2.479 [kJ/mol]       0.00094418 [Eh]
    Vibrational E          16.685 [kcal/mol]       69.812 [kJ/mol]       0.02658993 [Eh]
  Correction E             18.167 [kcal/mol]       76.009 [kJ/mol]       0.02895040 [Eh]
  Total E, Electronic energy at  298.15 [K]                            -77.06877161 [Eh]

  Enthalpy, H_trans = E_trans + k_B * T
    Electronic H            0.000 [kcal/mol]        0.000 [kJ/mol]       0.00000000 [Eh]
    Translational H         1.481 [kcal/mol]        6.197 [kJ/mol]       0.00236046 [Eh]
    Rotational H            0.592 [kcal/mol]        2.479 [kJ/mol]       0.00094418 [Eh]
    Vibrational H          16.685 [kcal/mol]       69.812 [kJ/mol]       0.02658993 [Eh]
  Correction H             18.759 [kcal/mol]       78.488 [kJ/mol]       0.02989458 [Eh]
  Total H, Enthalpy at  298.15 [K]                                     -77.06782742 [Eh]

  Gibbs free energy, G = H - T * S
    Electronic G            0.000 [kcal/mol]        0.000 [kJ/mol]       0.00000000 [Eh]
    Translational G        -9.164 [kcal/mol]      -38.342 [kJ/mol]      -0.01460386 [Eh]
    Rotational G           -2.673 [kcal/mol]      -11.183 [kJ/mol]      -0.00425956 [Eh]
    Vibrational G          16.197 [kcal/mol]       67.768 [kJ/mol]       0.02581128 [Eh]
  Correction G              4.360 [kcal/mol]       18.242 [kJ/mol]       0.00694786 [Eh]
  Total G, Free enthalpy at  298.15 [K]                                -77.09077414 [Eh]

*** Psi4 exiting successfully. Buy a developer a beer!
