                               Psi4 1.3.2 release

  ==> Input File <==

--------------------------------------------------------------------------
set basis  aug-cc-pVTZ
molecule {
0 1
   O        0.00000        0.00000        0.49152
   C        0.00000        0.00000       -0.65516
}
energy('CCSD')
frequencies('CCSD')
--------------------------------------------------------------------------

    Molecular point group: c2v
  Charge       = 0
  Multiplicity = 1
  Basis Set: AUG-CC-PVTZ
    Blend: AUG-CC-PVTZ
  @RHF Final Energy:  -112.77846269205546
    Total Energy =                       -112.7784626920554558
      * MP2 total energy                      = -113.171108328527794
      * CCSD total energy                     = -113.172819570395234
    Molecular point group: c2v
  Basis Set: AUG-CC-PVTZ
    Blend: AUG-CC-PVTZ
  @RHF Final Energy:  -112.77846269205573
    Total Energy =                       -112.7784626920557116
      * MP2 total energy                      = -113.171108329033217
      * CCSD total energy                     = -113.172819570612049
  Basis Set: AUG-CC-PVTZ
    Blend: AUG-CC-PVTZ
  @RHF Final Energy:  -112.77846269205573
    Total Energy =                       -112.7784626920557116
      * MP2 total energy                      = -113.171108329033217
      * CCSD total energy                     = -113.172819570300419
  Basis Set: AUG-CC-PVTZ
    Blend: AUG-CC-PVTZ
  @RHF Final Energy:  -112.77866332786714
    Total Energy =                       -112.7786633278671502
      * MP2 total energy                      = -113.171157314284656
      * CCSD total energy                     = -113.172915831448037
  Basis Set: AUG-CC-PVTZ
    Blend: AUG-CC-PVTZ
  @RHF Final Energy:  -112.77825792440453
    Total Energy =                       -112.7782579244045280
      * MP2 total energy                      = -113.171055397255188
      * CCSD total energy                     = -113.172719249541430
  Basis Set: AUG-CC-PVTZ
    Blend: AUG-CC-PVTZ
  @RHF Final Energy:  -112.77846260274026
    Total Energy =                       -112.7784626027402624
      * MP2 total energy                      = -113.171108306577906
      * CCSD total energy                     = -113.172819526989841
    Molecular point group: cs
  Charge       = 0
  Multiplicity = 1
  Basis Set: AUG-CC-PVTZ
    Blend: AUG-CC-PVTZ

    Orbital Energies [Eh]
    ---------------------

    Doubly Occupied:

       1Ap   -20.668847     2Ap   -11.370176     3Ap    -1.510373
       4Ap    -0.803338     5Ap    -0.632594     1App   -0.632594
       6Ap    -0.556995

  @RHF Final Energy:  -112.77846260274023

   => Energetics <=

    Nuclear Repulsion Energy =             22.1513379928885605
    One-Electron Energy =                -197.5097678123494234
    Two-Electron Energy =                  62.5799672167206396
    Total Energy =                       -112.7784626027402339

  Dipole Moment: [D]
     X:     0.0000      Y:     0.0003      Z:    -0.3588     Total:     0.3588

      * MP2 total energy                      = -113.171108306577821
      * CCSD total energy                     = -113.172819526989755
    Molecular point group: cs

    Geometry (in Bohr), charge = 0, multiplicity = 1:

       Center              X                  Y                   Z
    ------------   -----------------  -----------------  -----------------
         O            0.000000000000    -0.000818521498     0.928844906150
         C            0.000000000000     0.001091015123    -1.238066247390

  -Total gradient:
     Atom            X                  Y                   Z
    ------   -----------------  -----------------  -----------------
       1        0.000000000000    -0.000045363001     0.051477197614
       2        0.000000000000     0.000045363001    -0.051477197613

  Vibration                       4                   5                   6
  Freq [cm^-1]                 302.5862            302.5862           2071.4635
  Irrep                           B2                  B1                  A1
  Reduced mass [u]             13.4388             13.4388             13.4388
  Force const [mDyne/A]         0.7249              0.7249             33.9753

  ==> Thermochemistry Components <==

  Entropy, S
    Electronic S            0.000 [cal/(mol K)]        0.000 [J/(mol K)]       0.00000000 [mEh/K] (multiplicity = 1)
    Translational S        35.923 [cal/(mol K)]      150.302 [J/(mol K)]       0.05724692 [mEh/K] (mol. weight = 27.9949 [u], P = 101325.00 [Pa])
    Rotational S           11.343 [cal/(mol K)]       47.458 [J/(mol K)]       0.01807582 [mEh/K] (symmetry no. = 1)
    Vibrational S           2.806 [cal/(mol K)]       11.741 [J/(mol K)]       0.00447182 [mEh/K]
  Total S                  50.072 [cal/(mol K)]      209.501 [J/(mol K)]       0.07979456 [mEh/K]
  Correction S              0.000 [cal/(mol K)]        0.000 [J/(mol K)]       0.00000000 [mEh/K]

  Constant volume heat capacity, Cv
    Electronic Cv           0.000 [cal/(mol K)]        0.000 [J/(mol K)]       0.00000000 [mEh/K]
    Translational Cv        2.981 [cal/(mol K)]       12.472 [J/(mol K)]       0.00475022 [mEh/K]
    Rotational Cv           1.987 [cal/(mol K)]        8.314 [J/(mol K)]       0.00316681 [mEh/K]
    Vibrational Cv          3.347 [cal/(mol K)]       14.002 [J/(mol K)]       0.00533322 [mEh/K]
  Total Cv                  8.315 [cal/(mol K)]       34.789 [J/(mol K)]       0.01325025 [mEh/K]
  Correction Cv             0.000 [cal/(mol K)]        0.000 [J/(mol K)]       0.00000000 [mEh/K]

  Constant pressure heat capacity, Cp
    Electronic Cp           0.000 [cal/(mol K)]        0.000 [J/(mol K)]       0.00000000 [mEh/K]
    Translational Cp        4.968 [cal/(mol K)]       20.786 [J/(mol K)]       0.00791703 [mEh/K]
    Rotational Cp           1.987 [cal/(mol K)]        8.314 [J/(mol K)]       0.00316681 [mEh/K]
    Vibrational Cp          3.347 [cal/(mol K)]       14.002 [J/(mol K)]       0.00533322 [mEh/K]
  Total Cp                 10.302 [cal/(mol K)]       43.103 [J/(mol K)]       0.01641706 [mEh/K]
  Correction Cp             0.000 [cal/(mol K)]        0.000 [J/(mol K)]       0.00000000 [mEh/K]

  ==> Thermochemistry Energy Analysis <==

  Raw electronic energy, E0
  Total E0, Electronic energy at well bottom at 0 [K]                 -113.17281957 [Eh]

  Zero-point energy, ZPE_vib = Sum_i nu_i / 2
    Electronic ZPE          0.000 [kcal/mol]        0.000 [kJ/mol]       0.00000000 [Eh]
    Translational ZPE       0.000 [kcal/mol]        0.000 [kJ/mol]       0.00000000 [Eh]
    Rotational ZPE          0.000 [kcal/mol]        0.000 [kJ/mol]       0.00000000 [Eh]
    Vibrational ZPE         3.826 [kcal/mol]       16.010 [kJ/mol]       0.00609783 [Eh]        1338.318 [cm^-1]
  Correction ZPE            3.826 [kcal/mol]       16.010 [kJ/mol]       0.00609783 [Eh]        1338.318 [cm^-1]
  Total ZPE, Electronic energy at 0 [K]                               -113.16672174 [Eh]

  Thermal Energy, E (includes ZPE)
    Electronic E            0.000 [kcal/mol]        0.000 [kJ/mol]       0.00000000 [Eh]
    Translational E         0.889 [kcal/mol]        3.718 [kJ/mol]       0.00141628 [Eh]
    Rotational E            0.592 [kcal/mol]        2.479 [kJ/mol]       0.00094418 [Eh]
    Vibrational E           4.350 [kcal/mol]       18.200 [kJ/mol]       0.00693211 [Eh]
  Correction E              5.831 [kcal/mol]       24.398 [kJ/mol]       0.00929258 [Eh]
  Total E, Electronic energy at  298.15 [K]                           -113.16352699 [Eh]

  Enthalpy, H_trans = E_trans + k_B * T
    Electronic H            0.000 [kcal/mol]        0.000 [kJ/mol]       0.00000000 [Eh]
    Translational H         1.481 [kcal/mol]        6.197 [kJ/mol]       0.00236046 [Eh]
    Rotational H            0.592 [kcal/mol]        2.479 [kJ/mol]       0.00094418 [Eh]
    Vibrational H           4.350 [kcal/mol]       18.200 [kJ/mol]       0.00693211 [Eh]
  Correction H              6.424 [kcal/mol]       26.877 [kJ/mol]       0.01023676 [Eh]
  Total H, Enthalpy at  298.15 [K]                                    -113.16258281 [Eh]

  Gibbs free energy, G = H - T * S
    Electronic G            0.000 [kcal/mol]        0.000 [kJ/mol]       0.00000000 [Eh]
    Translational G        -9.229 [kcal/mol]      -38.615 [kJ/mol]      -0.01470771 [Eh]
    Rotational G           -2.789 [kcal/mol]      -11.671 [kJ/mol]      -0.00444512 [Eh]
    Vibrational G           3.513 [kcal/mol]       14.700 [kJ/mol]       0.00559884 [Eh]
  Correction G             -8.505 [kcal/mol]      -35.586 [kJ/mol]      -0.01355399 [Eh]
  Total G, Free enthalpy at  298.15 [K]                               -113.18637356 [Eh]

*** Psi4 exiting successfully. Buy a developer a beer!
