                               Psi4 1.3.2 release

  ==> Input File <==

--------------------------------------------------------------------------
set basis  6-31+g*
molecule {
0 1
   C       -0.61446        0.00000        0.00000
   C        0.61446        0.00000        0.00000
   H       -1.68923        0.00000        0.00000
   H        1.68923        0.00000        0.00000
}
energy('m06-2x')
frequencies('m06-2x')
--------------------------------------------------------------------------

    Molecular point group: d2h
  Charge       = 0
  Multiplicity = 1
  Basis Set: 6-31+G*
    Blend: 6-31+G*
  Basis Set: (6-31+G* AUX)
    Blend: HEAVY-AUG-CC-PVDZ-JKFIT
  @DF-RKS Final Energy:   -77.29220366578238
    Total Energy =                        -77.2922036657823810
    Molecular point group: d2h
  Basis Set: 6-31+G*
    Blend: 6-31+G*
  Basis Set: (6-31+G* AUX)
    Blend: HEAVY-AUG-CC-PVDZ-JKFIT
  @DF-RKS Final Energy:   -77.29220366596232
    Total Energy =                        -77.2922036659623046
  Basis Set: 6-31+G*
    Blend: 6-31+G*
  Basis Set: (6-31+G* AUX)
    Blend: HEAVY-AUG-CC-PVDZ-JKFIT
  Basis Set: 6-31+G*
    Blend: 6-31+G*
  Basis Set: (6-31+G* AUX)
    Blend: HEAVY-AUG-CC-PVDZ-JKFIT
  @DF-RKS Final Energy:   -77.29220366596232
    Total Energy =                        -77.2922036659623046
  Basis Set: 6-31+G*
  @DF-RKS Final Energy:   -77.29210825476326
    Total Energy =                        -77.2921082547632636
  @DF-RKS Final Energy:   -77.29229398084381
    Total Energy =                        -77.2922939808438088
  @DF-RKS Final Energy:   -77.29216434784452
    Total Energy =                        -77.2921643478445191
  @DF-RKS Final Energy:   -77.29223293668399
    Total Energy =                        -77.2922329366839875
  @DF-RKS Final Energy:   -77.29220355046998
    Total Energy =                        -77.2922035504699778
  @DF-RKS Final Energy:   -77.29220352986259
    Total Energy =                        -77.2922035298625758
  @DF-RKS Final Energy:   -77.29220355056547
    Total Energy =                        -77.2922035505654748
  @DF-RKS Final Energy:   -77.29220352988560
    Total Energy =                        -77.2922035298855974
  @DF-RKS Final Energy:   -77.29220335384878
    Total Energy =                        -77.2922033538487909
  Basis Set: (6-31+G* AUX)
    Blend: HEAVY-AUG-CC-PVDZ-JKFIT
  Basis Set: 6-31+G*
    Blend: 6-31+G*
  Basis Set: (6-31+G* AUX)
    Blend: HEAVY-AUG-CC-PVDZ-JKFIT
  @DF-RKS Final Energy:   -77.29220335389708
    Total Energy =                        -77.2922033538970936
  Basis Set: 6-31+G*
    Blend: 6-31+G*
  Basis Set: (6-31+G* AUX)
    Blend: HEAVY-AUG-CC-PVDZ-JKFIT
    Molecular point group: c2v
  Charge       = 0
  Multiplicity = 1
  Basis Set: 6-31+G*
    Blend: 6-31+G*
  Basis Set: (6-31+G* AUX)
    Blend: HEAVY-AUG-CC-PVDZ-JKFIT

    Orbital Energies [Eh]
    ---------------------

    Doubly Occupied:

       1A1   -10.569999     2A1   -10.567712     3A1    -0.844194
       4A1    -0.648770     5A1    -0.562057     1B2    -0.349969
       1B1    -0.349969

  @DF-RKS Final Energy:   -77.29219822759976

   => Energetics <=

    Nuclear Repulsion Energy =             24.3232393838559098
    One-Electron Energy =                -150.9121340239662175
    Two-Electron Energy =                  54.8025646039926144
    DFT Exchange-Correlation Energy =      -5.5058681914820484
    Empirical Dispersion Energy =           0.0000000000000000
    VV10 Nonlocal Energy =                  0.0000000000000000
    Total Energy =                        -77.2921982275997550

  Dipole Moment: [D]
     X:     0.0040      Y:     0.0000      Z:     0.0000     Total:     0.0040

    Molecular point group: c2v

    Geometry (in Angstrom), charge = 0, multiplicity = 1:

       Center              X                  Y                   Z               Mass
    ------------   -----------------  -----------------  -----------------  -----------------
         C           -0.614610333491     0.000000000000     0.000000000000    12.000000000000
         C            0.614309666509     0.000000000000     0.000000000000    12.000000000000
         H           -1.687440004874     0.000000000000     0.000000000000     1.007825032230
         H            1.691019995126     0.000000000000     0.000000000000     1.007825032230

  Basis Set: 6-31+G*
    Blend: 6-31+G*
  Basis Set: (6-31+G* AUX)
    Blend: HEAVY-AUG-CC-PVDZ-JKFIT

  -Total Gradient:
     Atom            X                  Y                   Z
    ------   -----------------  -----------------  -----------------
       1       -0.046847896010     0.000000000000     0.000000000000
       2        0.043882193210     0.000000000000     0.000000000000
       3       -0.003344976168     0.000000000000     0.000000000000
       4        0.006310566251     0.000000000000     0.000000000000

  Vibration                       4                   5                   6
  Freq [cm^-1]                 257.5855            257.5881            681.8173
  Irrep                          B1g                 B2g                 B1g
  Reduced mass [u]              2.0212              2.0212              1.7217
  Force const [mDyne/A]         0.0790              0.0790              0.4716

  Vibration                       7                   8                   9
  Freq [cm^-1]                 681.8191            810.2705            810.2721
  Irrep                          B2g                 B1u                 B2u
  Reduced mass [u]              1.7217              1.0848              1.0848
  Force const [mDyne/A]         0.4716              0.4196              0.4196

  Vibration                       10                  11                  12
  Freq [cm^-1]                1972.6751           3390.2174           3480.6966
  Irrep                           Ag                 B3u                  Ag
  Reduced mass [u]              4.0177              1.0848              1.2097
  Force const [mDyne/A]         9.2116              7.3462              8.6348

  ==> Thermochemistry Components <==

  Entropy, S
    Electronic S            0.000 [cal/(mol K)]        0.000 [J/(mol K)]       0.00000000 [mEh/K] (multiplicity = 1)
    Translational S        35.704 [cal/(mol K)]      149.387 [J/(mol K)]       0.05689862 [mEh/K] (mol. weight = 26.0157 [u], P = 101325.00 [Pa])
    Rotational S           10.952 [cal/(mol K)]       45.824 [J/(mol K)]       0.01745345 [mEh/K] (symmetry no. = 2)
    Vibrational S           4.413 [cal/(mol K)]       18.462 [J/(mol K)]       0.00703198 [mEh/K]
  Total S                  51.069 [cal/(mol K)]      213.674 [J/(mol K)]       0.08138405 [mEh/K]
  Correction S              0.000 [cal/(mol K)]        0.000 [J/(mol K)]       0.00000000 [mEh/K]

  Constant volume heat capacity, Cv
    Electronic Cv           0.000 [cal/(mol K)]        0.000 [J/(mol K)]       0.00000000 [mEh/K]
    Translational Cv        2.981 [cal/(mol K)]       12.472 [J/(mol K)]       0.00475022 [mEh/K]
    Rotational Cv           1.987 [cal/(mol K)]        8.314 [J/(mol K)]       0.00316681 [mEh/K]
    Vibrational Cv          6.510 [cal/(mol K)]       27.238 [J/(mol K)]       0.01037432 [mEh/K]
  Total Cv                 11.478 [cal/(mol K)]       48.024 [J/(mol K)]       0.01829134 [mEh/K]
  Correction Cv             0.000 [cal/(mol K)]        0.000 [J/(mol K)]       0.00000000 [mEh/K]

  Constant pressure heat capacity, Cp
    Electronic Cp           0.000 [cal/(mol K)]        0.000 [J/(mol K)]       0.00000000 [mEh/K]
    Translational Cp        4.968 [cal/(mol K)]       20.786 [J/(mol K)]       0.00791703 [mEh/K]
    Rotational Cp           1.987 [cal/(mol K)]        8.314 [J/(mol K)]       0.00316681 [mEh/K]
    Vibrational Cp          6.510 [cal/(mol K)]       27.238 [J/(mol K)]       0.01037432 [mEh/K]
  Total Cp                 13.465 [cal/(mol K)]       56.338 [J/(mol K)]       0.02145815 [mEh/K]
  Correction Cp             0.000 [cal/(mol K)]        0.000 [J/(mol K)]       0.00000000 [mEh/K]

  ==> Thermochemistry Energy Analysis <==

  Raw electronic energy, E0
  Total E0, Electronic energy at well bottom at 0 [K]                  -77.29220367 [Eh]

  Zero-point energy, ZPE_vib = Sum_i nu_i / 2
    Electronic ZPE          0.000 [kcal/mol]        0.000 [kJ/mol]       0.00000000 [Eh]
    Translational ZPE       0.000 [kcal/mol]        0.000 [kJ/mol]       0.00000000 [Eh]
    Rotational ZPE          0.000 [kcal/mol]        0.000 [kJ/mol]       0.00000000 [Eh]
    Vibrational ZPE        17.645 [kcal/mol]       73.827 [kJ/mol]       0.02811929 [Eh]        6171.471 [cm^-1]
  Correction ZPE           17.645 [kcal/mol]       73.827 [kJ/mol]       0.02811929 [Eh]        6171.471 [cm^-1]
  Total ZPE, Electronic energy at 0 [K]                                -77.26408438 [Eh]

  Thermal Energy, E (includes ZPE)
    Electronic E            0.000 [kcal/mol]        0.000 [kJ/mol]       0.00000000 [Eh]
    Translational E         0.889 [kcal/mol]        3.718 [kJ/mol]       0.00141628 [Eh]
    Rotational E            0.592 [kcal/mol]        2.479 [kJ/mol]       0.00094418 [Eh]
    Vibrational E          18.488 [kcal/mol]       77.355 [kJ/mol]       0.02946312 [Eh]
  Correction E             19.970 [kcal/mol]       83.553 [kJ/mol]       0.03182358 [Eh]
  Total E, Electronic energy at  298.15 [K]                            -77.26038008 [Eh]

  Enthalpy, H_trans = E_trans + k_B * T
    Electronic H            0.000 [kcal/mol]        0.000 [kJ/mol]       0.00000000 [Eh]
    Translational H         1.481 [kcal/mol]        6.197 [kJ/mol]       0.00236046 [Eh]
    Rotational H            0.592 [kcal/mol]        2.479 [kJ/mol]       0.00094418 [Eh]
    Vibrational H          18.488 [kcal/mol]       77.355 [kJ/mol]       0.02946312 [Eh]
  Correction H             20.562 [kcal/mol]       86.032 [kJ/mol]       0.03276777 [Eh]
  Total H, Enthalpy at  298.15 [K]                                     -77.25943590 [Eh]

  Gibbs free energy, G = H - T * S
    Electronic G            0.000 [kcal/mol]        0.000 [kJ/mol]       0.00000000 [Eh]
    Translational G        -9.164 [kcal/mol]      -38.342 [kJ/mol]      -0.01460386 [Eh]
    Rotational G           -2.673 [kcal/mol]      -11.183 [kJ/mol]      -0.00425956 [Eh]
    Vibrational G          17.173 [kcal/mol]       71.851 [kJ/mol]       0.02736654 [Eh]
  Correction G              5.336 [kcal/mol]       22.325 [kJ/mol]       0.00850311 [Eh]
  Total G, Free enthalpy at  298.15 [K]                                -77.28370055 [Eh]

*** Psi4 exiting successfully. Buy a developer a beer!
