                               Psi4 1.3.2 release

  ==> Input File <==

--------------------------------------------------------------------------
set basis  cc-pVDZ
molecule {
0 1
   C        0.32153        0.81326        0.00000
   C       -0.86505       -0.12817        0.00000
   C        0.54353       -0.68508        0.00000
   H        0.53795        1.36069       -0.92039
   H        0.53795        1.36069        0.92039
   H       -1.44742       -0.21449        0.92034
   H       -1.44742       -0.21449       -0.92034
   H        0.90937       -1.14629       -0.92037
   H        0.90937       -1.14629        0.92037
}
energy('MP2')
frequencies('MP2')
--------------------------------------------------------------------------

    Molecular point group: cs
  Charge       = 0
  Multiplicity = 1
  Basis Set: CC-PVDZ
    Blend: CC-PVDZ
  Basis Set: (CC-PVDZ AUX)
    Blend: CC-PVDZ-JKFIT
  @DF-RHF Final Energy:  -117.06645906751287
    Total Energy =                       -117.0664590675128665
  Basis Set: (CC-PVDZ AUX)
    Blend: CC-PVDZ-RI
	 Reference Energy          =    -117.0664590675128665 [Eh]
	 Singles Energy            =      -0.0000000000000000 [Eh]
	 Same-Spin Energy          =      -0.1006744112173311 [Eh]
	 Opposite-Spin Energy      =      -0.3316621602677964 [Eh]
	 Correlation Energy        =      -0.4323365714851276 [Eh]
	 Total Energy              =    -117.4987956389979900 [Eh]
	 SCS Total Energy          =    -117.4980117969066669 [Eh]
    Molecular point group: cs
  Basis Set: CC-PVDZ
    Blend: CC-PVDZ
  Basis Set: (CC-PVDZ AUX)
    Blend: CC-PVDZ-JKFIT
  @DF-RHF Final Energy:  -117.06645906760917
    Total Energy =                       -117.0664590676091734
  Basis Set: (CC-PVDZ AUX)
  @DF-RHF Final Energy:  -117.06645906760917
    Total Energy =                       -117.0664590676091734
  @DF-RHF Final Energy:  -117.06646365777007
    Total Energy =                       -117.0664636577700719
  @DF-RHF Final Energy:  -117.06645322547237
    Total Energy =                       -117.0664532254723724
  @DF-RHF Final Energy:  -117.06646907196713
    Total Energy =                       -117.0664690719671341
  @DF-RHF Final Energy:  -117.06644726192427
    Total Energy =                       -117.0664472619242673
  @DF-RHF Final Energy:  -117.06644679379008
    Total Energy =                       -117.0664467937900781
  @DF-RHF Final Energy:  -117.06646922558049
    Total Energy =                       -117.0664692255804908
  @DF-RHF Final Energy:  -117.06646060548863
    Total Energy =                       -117.0664606054886292
  @DF-RHF Final Energy:  -117.06645597490359
    Total Energy =                       -117.0664559749035902
  @DF-RHF Final Energy:  -117.06646177605913
    Total Energy =                       -117.0664617760591284
  @DF-RHF Final Energy:  -117.06645388071153
    Total Energy =                       -117.0664538807115349
  @DF-RHF Final Energy:  -117.06645338325215
    Total Energy =                       -117.0664533832521528
  @DF-RHF Final Energy:  -117.06646216177785
    Total Energy =                       -117.0664621617778494
  @DF-RHF Final Energy:  -117.06647154020870
    Total Energy =                       -117.0664715402086955
  @DF-RHF Final Energy:  -117.06644383578022
    Total Energy =                       -117.0664438357802197
  @DF-RHF Final Energy:  -117.06648225403728
    Total Energy =                       -117.0664822540372825
  @DF-RHF Final Energy:  -117.06643274716734
    Total Energy =                       -117.0664327471673403
  @DF-RHF Final Energy:  -117.06640975649024
    Total Energy =                       -117.0664097564902448
  @DF-RHF Final Energy:  -117.06650095866695
    Total Energy =                       -117.0665009586669498
  @DF-RHF Final Energy:  -117.06642905047187
    Total Energy =                       -117.0664290504718679
  @DF-RHF Final Energy:  -117.06648578041738
    Total Energy =                       -117.0664857804173806
  @DF-RHF Final Energy:  -117.06650088544463
    Total Energy =                       -117.0665008854446256
  @DF-RHF Final Energy:  -117.06640983002355
    Total Energy =                       -117.0664098300235452
  @DF-RHF Final Energy:  -117.06640978500559
    Total Energy =                       -117.0664097850055896
  @DF-RHF Final Energy:  -117.06650093028527
    Total Energy =                       -117.0665009302852724
  @DF-RHF Final Energy:  -117.06645696159838
    Total Energy =                       -117.0664569615983766
  @DF-RHF Final Energy:  -117.06645672435043
    Total Energy =                       -117.0664567243504308
  @DF-RHF Final Energy:  -117.06645596982318
    Total Energy =                       -117.0664559698231812
  @DF-RHF Final Energy:  -117.06645818540616
    Total Energy =                       -117.0664581854061623
  @DF-RHF Final Energy:  -117.06645676879168
    Total Energy =                       -117.0664567687916815
  @DF-RHF Final Energy:  -117.06645689596530
    Total Energy =                       -117.0664568959653025
  @DF-RHF Final Energy:  -117.06645663432602
    Total Energy =                       -117.0664566343260162
  @DF-RHF Final Energy:  -117.06645841359861
    Total Energy =                       -117.0664584135986104
    Molecular point group: c1
  Charge       = 0
  Multiplicity = 1
  Basis Set: CC-PVDZ
    Blend: CC-PVDZ
  Basis Set: (CC-PVDZ AUX)
    Blend: CC-PVDZ-JKFIT

    Orbital Energies [Eh]
    ---------------------

    Doubly Occupied:

       1A    -11.232380     2A    -11.231436     3A    -11.231431
       4A     -1.126141     5A     -0.813682     6A     -0.813676
       7A     -0.661805     8A     -0.620821     9A     -0.509038
      10A     -0.509022    11A     -0.416077    12A     -0.416069

  @DF-RHF Final Energy:  -117.06645633970416

   => Energetics <=

    Nuclear Repulsion Energy =             75.2814718714328848
    One-Electron Energy =                -305.5326983047585827
    Two-Electron Energy =                 113.1847700936215517
    Total Energy =                       -117.0664563397041604

  Dipole Moment: [D]
     X:    -0.0001      Y:    -0.0001      Z:    -0.0007     Total:     0.0007

  Basis Set: (CC-PVDZ AUX)
    Blend: CC-PVDZ-RI
    Molecular point group: c1

    Geometry (in Angstrom), charge = 0, multiplicity = 1:

       Center              X                  Y                   Z               Mass
    ------------   -----------------  -----------------  -----------------  -----------------
         C            0.321531939855     0.813261460475     0.000000000000    12.000000000000
         C           -0.865048060145    -0.128168539525     0.000000000000    12.000000000000
         C            0.543531939855    -0.685078539525     0.000000000000    12.000000000000
         H            0.537951939855     1.360691460475    -0.920390000000     1.007825032230
         H            0.537951939855     1.360691460475     0.920390000000     1.007825032230
         H           -1.447418060145    -0.214488539525     0.919737951237     1.007825032230
         H           -1.447418060145    -0.214488539525    -0.920942048763     1.007825032230
         H            0.907830274543    -1.145679013968    -0.919767951237     1.007825032230
         H            0.910913605168    -1.146898065083     0.920972048763     1.007825032230

  Basis Set: CC-PVDZ
    Blend: CC-PVDZ
  Basis Set: (CC-PVDZ AUX)
    Blend: CC-PVDZ-JKFIT
  Basis Set: (CC-PVDZ AUX)
    Blend: CC-PVDZ-JKFIT
	 Reference Energy          =    -117.0664563397041604 [Eh]
	 Singles Energy            =      -0.0000000000000000 [Eh]
	 Same-Spin Energy          =      -0.1006744077245142 [Eh]
	 Opposite-Spin Energy      =      -0.3316621754259445 [Eh]
	 Correlation Energy        =      -0.4323365831504587 [Eh]
	 Total Energy              =    -117.4987929228546193 [Eh]

	 ================> DF-SCS-MP2 Energies <==================
	-----------------------------------------------------------
	 SCS Same-Spin Scale       =       0.3333333333333333 [-]
	 SCS Opposite-Spin Scale   =       1.2000000000000000 [-]
	 SCS Same-Spin Energy      =      -0.0335581359081714 [Eh]
	 SCS Opposite-Spin Energy  =      -0.3979946105111334 [Eh]
	 SCS Correlation Energy    =      -0.4315527464193048 [Eh]
	 SCS Total Energy          =    -117.4980090861234601 [Eh]
	-----------------------------------------------------------

  -Total Gradient:
     Atom            X                  Y                   Z
    ------   -----------------  -----------------  -----------------
       1        0.000439348442     0.001113929025     0.000007344334
       2       -0.001160552581    -0.000169463046     0.000484199706
       3        0.000741820039    -0.000929443093    -0.001349249262
       4        0.000086565748     0.000223322301    -0.000131528530
       5        0.000092451439     0.000235813980     0.000128306857
       6       -0.000061380256    -0.000034998897    -0.000180616514
       7       -0.000441372266    -0.000044407194    -0.000421114530
       8       -0.000225585620     0.000184974639     0.000607606140
       9        0.000528705054    -0.000579727716     0.000855051799

  Vibration                       7                   8                   9
  Freq [cm^-1]                 738.3114            738.3300            861.3569
  Irrep                          App                 App                 App
  Reduced mass [u]              1.0237              1.0237              1.0437
  Force const [mDyne/A]         0.3288              0.3288              0.4562

  Vibration                       10                  11                  12
  Freq [cm^-1]                 913.8069            913.8420           1060.6094
  Irrep                           Ap                  Ap                  Ap
  Reduced mass [u]              3.3273              3.3273              1.3163
  Force const [mDyne/A]         1.6370              1.6372              0.8724

  Vibration                       13                  14                  15
  Freq [cm^-1]                1060.6232           1078.1531           1161.5847
  Irrep                           Ap                  Ap                 App
  Reduced mass [u]              1.3163              1.4254              1.0078
  Force const [mDyne/A]         0.8724              0.9763              0.8012

  Vibration                       16                  17                  18
  Freq [cm^-1]                1211.2019           1211.2024           1238.0725
  Irrep                          App                 App                  Ap
  Reduced mass [u]              1.4460              1.4461              2.3782
  Force const [mDyne/A]         1.2499              1.2499              2.1478

  Vibration                       19                  20                  21
  Freq [cm^-1]                1466.5999           1466.6129           1528.7745
  Irrep                           Ap                  Ap                  Ap
  Reduced mass [u]              1.0899              1.0899              1.4078
  Force const [mDyne/A]         1.3813              1.3813              1.9386

  Vibration                       22                  23                  24
  Freq [cm^-1]                3190.8529           3190.8741           3201.6200
  Irrep                           Ap                  Ap                  Ap
  Reduced mass [u]              1.0509              1.0509              1.0672
  Force const [mDyne/A]         6.3039              6.3040              6.4453

  Vibration                       25                  26                  27
  Freq [cm^-1]                3289.0664           3289.0763           3307.6993
  Irrep                          App                 App                 App
  Reduced mass [u]              1.1201              1.1201              1.1165
  Force const [mDyne/A]         7.1392              7.1393              7.1973

  ==> Thermochemistry Components <==

  Entropy, S
    Electronic S            0.000 [cal/(mol K)]        0.000 [J/(mol K)]       0.00000000 [mEh/K] (multiplicity = 1)
    Translational S        37.135 [cal/(mol K)]      155.375 [J/(mol K)]       0.05917914 [mEh/K] (mol. weight = 42.0470 [u], P = 101325.00 [Pa])
    Rotational S           21.699 [cal/(mol K)]       90.789 [J/(mol K)]       0.03457982 [mEh/K] (symmetry no. = 1)
    Vibrational S           1.369 [cal/(mol K)]        5.730 [J/(mol K)]       0.00218243 [mEh/K]
  Total S                  60.204 [cal/(mol K)]      251.894 [J/(mol K)]       0.09594139 [mEh/K]
  Correction S              0.000 [cal/(mol K)]        0.000 [J/(mol K)]       0.00000000 [mEh/K]

  Constant volume heat capacity, Cv
    Electronic Cv           0.000 [cal/(mol K)]        0.000 [J/(mol K)]       0.00000000 [mEh/K]
    Translational Cv        2.981 [cal/(mol K)]       12.472 [J/(mol K)]       0.00475022 [mEh/K]
    Rotational Cv           2.981 [cal/(mol K)]       12.472 [J/(mol K)]       0.00475022 [mEh/K]
    Vibrational Cv          5.008 [cal/(mol K)]       20.952 [J/(mol K)]       0.00798016 [mEh/K]
  Total Cv                 10.969 [cal/(mol K)]       45.895 [J/(mol K)]       0.01748059 [mEh/K]
  Correction Cv             0.000 [cal/(mol K)]        0.000 [J/(mol K)]       0.00000000 [mEh/K]

  Constant pressure heat capacity, Cp
    Electronic Cp           0.000 [cal/(mol K)]        0.000 [J/(mol K)]       0.00000000 [mEh/K]
    Translational Cp        4.968 [cal/(mol K)]       20.786 [J/(mol K)]       0.00791703 [mEh/K]
    Rotational Cp           2.981 [cal/(mol K)]       12.472 [J/(mol K)]       0.00475022 [mEh/K]
    Vibrational Cp          5.008 [cal/(mol K)]       20.952 [J/(mol K)]       0.00798016 [mEh/K]
  Total Cp                 12.956 [cal/(mol K)]       54.210 [J/(mol K)]       0.02064740 [mEh/K]
  Correction Cp             0.000 [cal/(mol K)]        0.000 [J/(mol K)]       0.00000000 [mEh/K]

  ==> Thermochemistry Energy Analysis <==

  Raw electronic energy, E0
  Total E0, Electronic energy at well bottom at 0 [K]                 -117.49879564 [Eh]

  Zero-point energy, ZPE_vib = Sum_i nu_i / 2
    Electronic ZPE          0.000 [kcal/mol]        0.000 [kJ/mol]       0.00000000 [Eh]
    Translational ZPE       0.000 [kcal/mol]        0.000 [kJ/mol]       0.00000000 [Eh]
    Rotational ZPE          0.000 [kcal/mol]        0.000 [kJ/mol]       0.00000000 [Eh]
    Vibrational ZPE        51.634 [kcal/mol]      216.035 [kJ/mol]       0.08228347 [Eh]       18059.135 [cm^-1]
  Correction ZPE           51.634 [kcal/mol]      216.035 [kJ/mol]       0.08228347 [Eh]       18059.135 [cm^-1]
  Total ZPE, Electronic energy at 0 [K]                               -117.41651216 [Eh]

  Thermal Energy, E (includes ZPE)
    Electronic E            0.000 [kcal/mol]        0.000 [kJ/mol]       0.00000000 [Eh]
    Translational E         0.889 [kcal/mol]        3.718 [kJ/mol]       0.00141628 [Eh]
    Rotational E            0.889 [kcal/mol]        3.718 [kJ/mol]       0.00141628 [Eh]
    Vibrational E          51.965 [kcal/mol]      217.422 [kJ/mol]       0.08281175 [Eh]
  Correction E             53.743 [kcal/mol]      224.859 [kJ/mol]       0.08564431 [Eh]
  Total E, Electronic energy at  298.15 [K]                           -117.41315133 [Eh]

  Enthalpy, H_trans = E_trans + k_B * T
    Electronic H            0.000 [kcal/mol]        0.000 [kJ/mol]       0.00000000 [Eh]
    Translational H         1.481 [kcal/mol]        6.197 [kJ/mol]       0.00236046 [Eh]
    Rotational H            0.889 [kcal/mol]        3.718 [kJ/mol]       0.00141628 [Eh]
    Vibrational H          51.965 [kcal/mol]      217.422 [kJ/mol]       0.08281175 [Eh]
  Correction H             54.335 [kcal/mol]      227.338 [kJ/mol]       0.08658849 [Eh]
  Total H, Enthalpy at  298.15 [K]                                    -117.41220715 [Eh]

  Gibbs free energy, G = H - T * S
    Electronic G            0.000 [kcal/mol]        0.000 [kJ/mol]       0.00000000 [Eh]
    Translational G        -9.591 [kcal/mol]      -40.128 [kJ/mol]      -0.01528380 [Eh]
    Rotational G           -5.581 [kcal/mol]      -23.350 [kJ/mol]      -0.00889370 [Eh]
    Vibrational G          51.557 [kcal/mol]      215.714 [kJ/mol]       0.08216106 [Eh]
  Correction G             36.385 [kcal/mol]      152.236 [kJ/mol]       0.05798357 [Eh]
  Total G, Free enthalpy at  298.15 [K]                               -117.44081207 [Eh]

*** Psi4 exiting successfully. Buy a developer a beer!
