                               Psi4 1.3.2 release

  ==> Input File <==

--------------------------------------------------------------------------
set basis  aug-cc-pVTZ
molecule {
0 1
   C        0.32153        0.81326        0.00000
   C       -0.86505       -0.12817        0.00000
   C        0.54353       -0.68508        0.00000
   H        0.53795        1.36069       -0.92039
   H        0.53795        1.36069        0.92039
   H       -1.44742       -0.21449        0.92034
   H       -1.44742       -0.21449       -0.92034
   H        0.90937       -1.14629       -0.92037
   H        0.90937       -1.14629        0.92037
}
energy('B3LYP')
frequencies('B3LYP')
--------------------------------------------------------------------------

    Molecular point group: cs
  Charge       = 0
  Multiplicity = 1
  Basis Set: AUG-CC-PVTZ
    Blend: AUG-CC-PVTZ
  Basis Set: (AUG-CC-PVTZ AUX)
    Blend: AUG-CC-PVTZ-JKFIT
  @DF-RKS Final Energy:  -117.94279133338995
    Total Energy =                       -117.9427913333899482
    Molecular point group: cs
  Basis Set: AUG-CC-PVTZ
    Blend: AUG-CC-PVTZ
  Basis Set: (AUG-CC-PVTZ AUX)
    Blend: AUG-CC-PVTZ-JKFIT
  @DF-RKS Final Energy:  -117.94279133341369
    Total Energy =                       -117.9427913334136946
  Basis Set: AUG-CC-PVTZ
    Blend: AUG-CC-PVTZ
  Basis Set: (AUG-CC-PVTZ AUX)
    Blend: AUG-CC-PVTZ-JKFIT
  Basis Set: AUG-CC-PVTZ
    Blend: AUG-CC-PVTZ
  Basis Set: (AUG-CC-PVTZ AUX)
    Blend: AUG-CC-PVTZ-JKFIT
  @DF-RKS Final Energy:  -117.94279133341388
    Total Energy =                       -117.9427913334138793
  Basis Set: AUG-CC-PVTZ
  @DF-RKS Final Energy:  -117.94279419007729
    Total Energy =                       -117.9427941900772936
  @DF-RKS Final Energy:  -117.94279478472095
    Total Energy =                       -117.9427947847209452
  @DF-RKS Final Energy:  -117.94279335693038
    Total Energy =                       -117.9427933569303804
  @DF-RKS Final Energy:  -117.94278962396776
    Total Energy =                       -117.9427896239677551
  @DF-RKS Final Energy:  -117.94278820645057
    Total Energy =                       -117.9427882064505724
  @DF-RKS Final Energy:  -117.94279216506942
    Total Energy =                       -117.9427921650694202
  @DF-RKS Final Energy:  -117.94279274521799
    Total Energy =                       -117.9427927452179858
  @DF-RKS Final Energy:  -117.94279550341294
    Total Energy =                       -117.9427955034129383
  @DF-RKS Final Energy:  -117.94279309894715
    Total Energy =                       -117.9427930989471491
  @DF-RKS Final Energy:  -117.94278917690232
    Total Energy =                       -117.9427891769023233
  @DF-RKS Final Energy:  -117.94278926582017
    Total Energy =                       -117.9427892658201671
  @DF-RKS Final Energy:  -117.94279151645144
    Total Energy =                       -117.9427915164514360
  @DF-RKS Final Energy:  -117.94280857150673
    Total Energy =                       -117.9428085715067311
  @DF-RKS Final Energy:  -117.94277901202815
    Total Energy =                       -117.9427790120281543
  @DF-RKS Final Energy:  -117.94281734262533
    Total Energy =                       -117.9428173426253323
  @DF-RKS Final Energy:  -117.94276204117570
    Total Energy =                       -117.9427620411756976
  @DF-RKS Final Energy:  -117.94273830902030
    Total Energy =                       -117.9427383090202994
  @DF-RKS Final Energy:  -117.94283767638554
    Total Energy =                       -117.9428376763855368
  @DF-RKS Final Energy:  -117.94276456139474
    Total Energy =                       -117.9427645613947391
  @DF-RKS Final Energy:  -117.94282811611309
    Total Energy =                       -117.9428281161130911
  @DF-RKS Final Energy:  -117.94283757776940
    Total Energy =                       -117.9428375777693816
  @DF-RKS Final Energy:  -117.94273840837609
    Total Energy =                       -117.9427384083760870
  @DF-RKS Final Energy:  -117.94273836042848
    Total Energy =                       -117.9427383604284785
  @DF-RKS Final Energy:  -117.94283762593281
    Total Energy =                       -117.9428376259328104
  @DF-RKS Final Energy:  -117.94278944359196
    Total Energy =                       -117.9427894435919626
  @DF-RKS Final Energy:  -117.94278924844721
    Total Energy =                       -117.9427892484472125
  @DF-RKS Final Energy:  -117.94278859628028
    Total Energy =                       -117.9427885962802804
  @DF-RKS Final Energy:  -117.94279048145411
    Total Energy =                       -117.9427904814541108
  @DF-RKS Final Energy:  -117.94278934081873
    Total Energy =                       -117.9427893408187344
  @DF-RKS Final Energy:  -117.94278928880644
    Total Energy =                       -117.9427892888064378
  @DF-RKS Final Energy:  -117.94278915635459
    Total Energy =                       -117.9427891563545927
  Basis Set: (AUG-CC-PVTZ AUX)
    Blend: AUG-CC-PVTZ-JKFIT
  Basis Set: AUG-CC-PVTZ
    Blend: AUG-CC-PVTZ
  Basis Set: (AUG-CC-PVTZ AUX)
    Blend: AUG-CC-PVTZ-JKFIT
  @DF-RKS Final Energy:  -117.94279076850630
    Total Energy =                       -117.9427907685062991
  Basis Set: AUG-CC-PVTZ
    Blend: AUG-CC-PVTZ
  Basis Set: (AUG-CC-PVTZ AUX)
    Blend: AUG-CC-PVTZ-JKFIT
    Molecular point group: c1
  Charge       = 0
  Multiplicity = 1
  Basis Set: AUG-CC-PVTZ
    Blend: AUG-CC-PVTZ
  Basis Set: (AUG-CC-PVTZ AUX)
    Blend: AUG-CC-PVTZ-JKFIT

    Orbital Energies [Eh]
    ---------------------

    Doubly Occupied:

       1A    -10.177351     2A    -10.176968     3A    -10.176964
       4A     -0.847578     5A     -0.596659     6A     -0.596654
       7A     -0.493735     8A     -0.464986     9A     -0.365553
      10A     -0.365539    11A     -0.297750    12A     -0.297744

  @DF-RKS Final Energy:  -117.94278899182821

   => Energetics <=

    Nuclear Repulsion Energy =             75.2814718714328848
    One-Electron Energy =                -305.9600430217507210
    Two-Electron Energy =                 127.7165078914034808
    DFT Exchange-Correlation Energy =     -14.9807257329138412
    Empirical Dispersion Energy =           0.0000000000000000
    VV10 Nonlocal Energy =                  0.0000000000000000
    Total Energy =                       -117.9427889918282091

  Dipole Moment: [D]
     X:    -0.0001      Y:    -0.0000      Z:    -0.0006     Total:     0.0006

    Molecular point group: c1

    Geometry (in Angstrom), charge = 0, multiplicity = 1:

       Center              X                  Y                   Z               Mass
    ------------   -----------------  -----------------  -----------------  -----------------
         C            0.321531939855     0.813261460475     0.000000000000    12.000000000000
         C           -0.865048060145    -0.128168539525     0.000000000000    12.000000000000
         C            0.543531939855    -0.685078539525     0.000000000000    12.000000000000
         H            0.537951939855     1.360691460475    -0.920390000000     1.007825032230
         H            0.537951939855     1.360691460475     0.920390000000     1.007825032230
         H           -1.447418060145    -0.214488539525     0.919737951237     1.007825032230
         H           -1.447418060145    -0.214488539525    -0.920942048763     1.007825032230
         H            0.907830274543    -1.145679013968    -0.919767951237     1.007825032230
         H            0.910913605168    -1.146898065083     0.920972048763     1.007825032230

  Basis Set: AUG-CC-PVTZ
    Blend: AUG-CC-PVTZ
  Basis Set: (AUG-CC-PVTZ AUX)
    Blend: AUG-CC-PVTZ-JKFIT

  -Total Gradient:
     Atom            X                  Y                   Z
    ------   -----------------  -----------------  -----------------
       1        0.000448560082     0.001149237076     0.000004001817
       2       -0.001193541292    -0.000172210196     0.000418533672
       3        0.000765882437    -0.000955169961    -0.001170678128
       4        0.001347924620     0.003413497320    -0.007052327116
       5        0.001353232821     0.003425805064     0.007050240393
       6       -0.003479314548    -0.000540858784     0.006775787832
       7       -0.003810531623    -0.000545916604    -0.007307736462
       8        0.001934442863    -0.002543285249    -0.006404661528
       9        0.002632818143    -0.003226491682     0.007686901907

  Vibration                       7                   8                   9
  Freq [cm^-1]                 798.5202            798.6299            854.1610
  Irrep                          App                 App                  Ap
  Reduced mass [u]              1.0208              1.0209              4.2896
  Force const [mDyne/A]         0.3835              0.3836              1.8439

  Vibration                       10                  11                  12
  Freq [cm^-1]                 856.2394            908.1230           1083.6381
  Irrep                           Ap                 App                  Ap
  Reduced mass [u]              4.3193              1.0441              1.2101
  Force const [mDyne/A]         1.8658              0.5073              0.8372

  Vibration                       13                  14                  15
  Freq [cm^-1]                1086.4128           1122.8289           1177.6723
  Irrep                           Ap                  Ap                 App
  Reduced mass [u]              1.2135              1.4255              1.0078
  Force const [mDyne/A]         0.8439              1.0589              0.8235

  Vibration                       16                  17                  18
  Freq [cm^-1]                1181.9135           1230.3960           1230.4789
  Irrep                           Ap                 App                 App
  Reduced mass [u]              3.0144              1.4511              1.4511
  Force const [mDyne/A]         2.4810              1.2943              1.2945

  Vibration                       19                  20                  21
  Freq [cm^-1]                1486.9695           1487.2303           1525.3212
  Irrep                           Ap                  Ap                  Ap
  Reduced mass [u]              1.0882              1.0886              1.2604
  Force const [mDyne/A]         1.4176              1.4186              1.7277

  Vibration                       22                  23                  24
  Freq [cm^-1]                3020.4429           3020.5056           3027.3861
  Irrep                           Ap                  Ap                  Ap
  Reduced mass [u]              1.0493              1.0494              1.0607
  Force const [mDyne/A]         5.6402              5.6409              5.7279

  Vibration                       25                  26                  27
  Freq [cm^-1]                3091.4629           3091.4868           3113.5791
  Irrep                          App                 App                 App
  Reduced mass [u]              1.1205              1.1205              1.1161
  Force const [mDyne/A]         6.3095              6.3097              6.3750

  ==> Thermochemistry Components <==

  Entropy, S
    Electronic S            0.000 [cal/(mol K)]        0.000 [J/(mol K)]       0.00000000 [mEh/K] (multiplicity = 1)
    Translational S        37.135 [cal/(mol K)]      155.375 [J/(mol K)]       0.05917914 [mEh/K] (mol. weight = 42.0470 [u], P = 101325.00 [Pa])
    Rotational S           21.699 [cal/(mol K)]       90.789 [J/(mol K)]       0.03457982 [mEh/K] (symmetry no. = 1)
    Vibrational S           1.273 [cal/(mol K)]        5.328 [J/(mol K)]       0.00202922 [mEh/K]
  Total S                  60.108 [cal/(mol K)]      251.492 [J/(mol K)]       0.09578818 [mEh/K]
  Correction S              0.000 [cal/(mol K)]        0.000 [J/(mol K)]       0.00000000 [mEh/K]

  Constant volume heat capacity, Cv
    Electronic Cv           0.000 [cal/(mol K)]        0.000 [J/(mol K)]       0.00000000 [mEh/K]
    Translational Cv        2.981 [cal/(mol K)]       12.472 [J/(mol K)]       0.00475022 [mEh/K]
    Rotational Cv           2.981 [cal/(mol K)]       12.472 [J/(mol K)]       0.00475022 [mEh/K]
    Vibrational Cv          4.805 [cal/(mol K)]       20.105 [J/(mol K)]       0.00765759 [mEh/K]
  Total Cv                 10.767 [cal/(mol K)]       45.048 [J/(mol K)]       0.01715802 [mEh/K]
  Correction Cv             0.000 [cal/(mol K)]        0.000 [J/(mol K)]       0.00000000 [mEh/K]

  Constant pressure heat capacity, Cp
    Electronic Cp           0.000 [cal/(mol K)]        0.000 [J/(mol K)]       0.00000000 [mEh/K]
    Translational Cp        4.968 [cal/(mol K)]       20.786 [J/(mol K)]       0.00791703 [mEh/K]
    Rotational Cp           2.981 [cal/(mol K)]       12.472 [J/(mol K)]       0.00475022 [mEh/K]
    Vibrational Cp          4.805 [cal/(mol K)]       20.105 [J/(mol K)]       0.00765759 [mEh/K]
  Total Cp                 12.754 [cal/(mol K)]       53.363 [J/(mol K)]       0.02032483 [mEh/K]
  Correction Cp             0.000 [cal/(mol K)]        0.000 [J/(mol K)]       0.00000000 [mEh/K]

  ==> Thermochemistry Energy Analysis <==

  Raw electronic energy, E0
  Total E0, Electronic energy at well bottom at 0 [K]                 -117.94279133 [Eh]

  Zero-point energy, ZPE_vib = Sum_i nu_i / 2
    Electronic ZPE          0.000 [kcal/mol]        0.000 [kJ/mol]       0.00000000 [Eh]
    Translational ZPE       0.000 [kcal/mol]        0.000 [kJ/mol]       0.00000000 [Eh]
    Rotational ZPE          0.000 [kcal/mol]        0.000 [kJ/mol]       0.00000000 [Eh]
    Vibrational ZPE        50.311 [kcal/mol]      210.503 [kJ/mol]       0.08017646 [Eh]       17596.699 [cm^-1]
  Correction ZPE           50.311 [kcal/mol]      210.503 [kJ/mol]       0.08017646 [Eh]       17596.699 [cm^-1]
  Total ZPE, Electronic energy at 0 [K]                               -117.86261487 [Eh]

  Thermal Energy, E (includes ZPE)
    Electronic E            0.000 [kcal/mol]        0.000 [kJ/mol]       0.00000000 [Eh]
    Translational E         0.889 [kcal/mol]        3.718 [kJ/mol]       0.00141628 [Eh]
    Rotational E            0.889 [kcal/mol]        3.718 [kJ/mol]       0.00141628 [Eh]
    Vibrational E          50.622 [kcal/mol]      211.801 [kJ/mol]       0.08067074 [Eh]
  Correction E             52.399 [kcal/mol]      219.238 [kJ/mol]       0.08350329 [Eh]
  Total E, Electronic energy at  298.15 [K]                           -117.85928804 [Eh]

  Enthalpy, H_trans = E_trans + k_B * T
    Electronic H            0.000 [kcal/mol]        0.000 [kJ/mol]       0.00000000 [Eh]
    Translational H         1.481 [kcal/mol]        6.197 [kJ/mol]       0.00236046 [Eh]
    Rotational H            0.889 [kcal/mol]        3.718 [kJ/mol]       0.00141628 [Eh]
    Vibrational H          50.622 [kcal/mol]      211.801 [kJ/mol]       0.08067074 [Eh]
  Correction H             52.992 [kcal/mol]      221.717 [kJ/mol]       0.08444748 [Eh]
  Total H, Enthalpy at  298.15 [K]                                    -117.85834386 [Eh]

  Gibbs free energy, G = H - T * S
    Electronic G            0.000 [kcal/mol]        0.000 [kJ/mol]       0.00000000 [Eh]
    Translational G        -9.591 [kcal/mol]      -40.128 [kJ/mol]      -0.01528380 [Eh]
    Rotational G           -5.581 [kcal/mol]      -23.350 [kJ/mol]      -0.00889370 [Eh]
    Vibrational G          50.242 [kcal/mol]      210.213 [kJ/mol]       0.08006573 [Eh]
  Correction G             35.070 [kcal/mol]      146.735 [kJ/mol]       0.05588823 [Eh]
  Total G, Free enthalpy at  298.15 [K]                               -117.88690310 [Eh]

*** Psi4 exiting successfully. Buy a developer a beer!
