                               Psi4 1.3.2 release

  ==> Input File <==

--------------------------------------------------------------------------
set basis  cc-pVDZ
molecule {
0 1
   C       -0.61446        0.00000        0.00000
   C        0.61446        0.00000        0.00000
   H       -1.68923        0.00000        0.00000
   H        1.68923        0.00000        0.00000
}
energy('B3LYP')
frequencies('B3LYP')
--------------------------------------------------------------------------

    Molecular point group: d2h
  Charge       = 0
  Multiplicity = 1
  Basis Set: CC-PVDZ
    Blend: CC-PVDZ
  Basis Set: (CC-PVDZ AUX)
    Blend: CC-PVDZ-JKFIT
  @DF-RKS Final Energy:   -77.33252339314537
    Total Energy =                        -77.3325233931453511
    Molecular point group: d2h
  Basis Set: CC-PVDZ
    Blend: CC-PVDZ
  Basis Set: (CC-PVDZ AUX)
    Blend: CC-PVDZ-JKFIT
  @DF-RKS Final Energy:   -77.33252339317515
    Total Energy =                        -77.3325233931751654
  Basis Set: CC-PVDZ
    Blend: CC-PVDZ
  Basis Set: (CC-PVDZ AUX)
    Blend: CC-PVDZ-JKFIT
  Basis Set: CC-PVDZ
    Blend: CC-PVDZ
  Basis Set: (CC-PVDZ AUX)
    Blend: CC-PVDZ-JKFIT
  @DF-RKS Final Energy:   -77.33252339317515
    Total Energy =                        -77.3325233931751654
  Basis Set: CC-PVDZ
  @DF-RKS Final Energy:   -77.33244591995476
    Total Energy =                        -77.3324459199547505
  @DF-RKS Final Energy:   -77.33259575721991
    Total Energy =                        -77.3325957572198917
  @DF-RKS Final Energy:   -77.33250725943748
    Total Energy =                        -77.3325072594374774
  @DF-RKS Final Energy:   -77.33252941019755
    Total Energy =                        -77.3325294101975516
  @DF-RKS Final Energy:   -77.33252329500675
    Total Energy =                        -77.3325232950067516
  @DF-RKS Final Energy:   -77.33252328428421
    Total Energy =                        -77.3325232842842070
  @DF-RKS Final Energy:   -77.33252329502913
    Total Energy =                        -77.3325232950291337
  @DF-RKS Final Energy:   -77.33252328429606
    Total Energy =                        -77.3325232842960588
  @DF-RKS Final Energy:   -77.33252310798561
    Total Energy =                        -77.3325231079856223
  Basis Set: (CC-PVDZ AUX)
    Blend: CC-PVDZ-JKFIT
  Basis Set: CC-PVDZ
    Blend: CC-PVDZ
  Basis Set: (CC-PVDZ AUX)
    Blend: CC-PVDZ-JKFIT
  @DF-RKS Final Energy:   -77.33252310799786
    Total Energy =                        -77.3325231079978579
  Basis Set: CC-PVDZ
    Blend: CC-PVDZ
  Basis Set: (CC-PVDZ AUX)
    Blend: CC-PVDZ-JKFIT
    Molecular point group: c2v
  Charge       = 0
  Multiplicity = 1
  Basis Set: CC-PVDZ
    Blend: CC-PVDZ
  Basis Set: (CC-PVDZ AUX)
    Blend: CC-PVDZ-JKFIT

    Orbital Energies [Eh]
    ---------------------

    Doubly Occupied:

       1A1   -10.203087     2A1   -10.201194     3A1    -0.747040
       4A1    -0.568180     5A1    -0.493416     1B2    -0.286973
       1B1    -0.286973

  @DF-RKS Final Energy:   -77.33251790794866

   => Energetics <=

    Nuclear Repulsion Energy =             24.3232393838559098
    One-Electron Energy =                -151.0546974935680566
    Two-Electron Energy =                  58.6802495371253698
    DFT Exchange-Correlation Energy =      -9.2813093353618843
    Empirical Dispersion Energy =           0.0000000000000000
    VV10 Nonlocal Energy =                  0.0000000000000000
    Total Energy =                        -77.3325179079486560

  Dipole Moment: [D]
     X:     0.0041      Y:     0.0000      Z:     0.0000     Total:     0.0041

    Molecular point group: c2v

    Geometry (in Angstrom), charge = 0, multiplicity = 1:

       Center              X                  Y                   Z               Mass
    ------------   -----------------  -----------------  -----------------  -----------------
         C           -0.614610333491     0.000000000000     0.000000000000    12.000000000000
         C            0.614309666509     0.000000000000     0.000000000000    12.000000000000
         H           -1.687440004874     0.000000000000     0.000000000000     1.007825032230
         H            1.691019995126     0.000000000000     0.000000000000     1.007825032230

  Basis Set: CC-PVDZ
    Blend: CC-PVDZ
  Basis Set: (CC-PVDZ AUX)
    Blend: CC-PVDZ-JKFIT

  -Total Gradient:
     Atom            X                  Y                   Z
    ------   -----------------  -----------------  -----------------
       1       -0.038206020599     0.000000000000     0.000000000000
       2        0.035214085398     0.000000000000     0.000000000000
       3       -0.000070146729     0.000000000000     0.000000000000
       4        0.003062104514     0.000000000000     0.000000000000

  Vibration                       4                   5                   6
  Freq [cm^-1]                 213.0724            213.0724            626.3069
  Irrep                          B1g                 B2g                 B2g
  Reduced mass [u]              1.9689              1.9689              1.7616
  Force const [mDyne/A]         0.0527              0.0527              0.4071

  Vibration                       7                   8                   9
  Freq [cm^-1]                 626.3069            776.3708            776.3708
  Irrep                          B1g                 B1u                 B2u
  Reduced mass [u]              1.7616              1.0848              1.0848
  Force const [mDyne/A]         0.4071              0.3853              0.3853

  Vibration                       10                  11                  12
  Freq [cm^-1]                1970.9886           3405.2496           3494.1246
  Irrep                           Ag                 B3u                  Ag
  Reduced mass [u]              4.0190              1.0848              1.2096
  Force const [mDyne/A]         9.1988              7.4115              8.7007

  ==> Thermochemistry Components <==

  Entropy, S
    Electronic S            0.000 [cal/(mol K)]        0.000 [J/(mol K)]       0.00000000 [mEh/K] (multiplicity = 1)
    Translational S        35.704 [cal/(mol K)]      149.387 [J/(mol K)]       0.05689862 [mEh/K] (mol. weight = 26.0157 [u], P = 101325.00 [Pa])
    Rotational S           10.952 [cal/(mol K)]       45.824 [J/(mol K)]       0.01745345 [mEh/K] (symmetry no. = 2)
    Vibrational S           5.304 [cal/(mol K)]       22.191 [J/(mol K)]       0.00845225 [mEh/K]
  Total S                  51.960 [cal/(mol K)]      217.403 [J/(mol K)]       0.08280432 [mEh/K]
  Correction S              0.000 [cal/(mol K)]        0.000 [J/(mol K)]       0.00000000 [mEh/K]

  Constant volume heat capacity, Cv
    Electronic Cv           0.000 [cal/(mol K)]        0.000 [J/(mol K)]       0.00000000 [mEh/K]
    Translational Cv        2.981 [cal/(mol K)]       12.472 [J/(mol K)]       0.00475022 [mEh/K]
    Rotational Cv           1.987 [cal/(mol K)]        8.314 [J/(mol K)]       0.00316681 [mEh/K]
    Vibrational Cv          6.989 [cal/(mol K)]       29.244 [J/(mol K)]       0.01113837 [mEh/K]
  Total Cv                 11.957 [cal/(mol K)]       50.030 [J/(mol K)]       0.01905540 [mEh/K]
  Correction Cv             0.000 [cal/(mol K)]        0.000 [J/(mol K)]       0.00000000 [mEh/K]

  Constant pressure heat capacity, Cp
    Electronic Cp           0.000 [cal/(mol K)]        0.000 [J/(mol K)]       0.00000000 [mEh/K]
    Translational Cp        4.968 [cal/(mol K)]       20.786 [J/(mol K)]       0.00791703 [mEh/K]
    Rotational Cp           1.987 [cal/(mol K)]        8.314 [J/(mol K)]       0.00316681 [mEh/K]
    Vibrational Cp          6.989 [cal/(mol K)]       29.244 [J/(mol K)]       0.01113837 [mEh/K]
  Total Cp                 13.945 [cal/(mol K)]       58.344 [J/(mol K)]       0.02222221 [mEh/K]
  Correction Cp             0.000 [cal/(mol K)]        0.000 [J/(mol K)]       0.00000000 [mEh/K]

  ==> Thermochemistry Energy Analysis <==

  Raw electronic energy, E0
  Total E0, Electronic energy at well bottom at 0 [K]                  -77.33252339 [Eh]

  Zero-point energy, ZPE_vib = Sum_i nu_i / 2
    Electronic ZPE          0.000 [kcal/mol]        0.000 [kJ/mol]       0.00000000 [Eh]
    Translational ZPE       0.000 [kcal/mol]        0.000 [kJ/mol]       0.00000000 [Eh]
    Rotational ZPE          0.000 [kcal/mol]        0.000 [kJ/mol]       0.00000000 [Eh]
    Vibrational ZPE        17.300 [kcal/mol]       72.385 [kJ/mol]       0.02757007 [Eh]        6050.932 [cm^-1]
  Correction ZPE           17.300 [kcal/mol]       72.385 [kJ/mol]       0.02757007 [Eh]        6050.932 [cm^-1]
  Total ZPE, Electronic energy at 0 [K]                                -77.30495332 [Eh]

  Thermal Energy, E (includes ZPE)
    Electronic E            0.000 [kcal/mol]        0.000 [kJ/mol]       0.00000000 [Eh]
    Translational E         0.889 [kcal/mol]        3.718 [kJ/mol]       0.00141628 [Eh]
    Rotational E            0.592 [kcal/mol]        2.479 [kJ/mol]       0.00094418 [Eh]
    Vibrational E          18.270 [kcal/mol]       76.441 [kJ/mol]       0.02911488 [Eh]
  Correction E             19.751 [kcal/mol]       82.638 [kJ/mol]       0.03147534 [Eh]
  Total E, Electronic energy at  298.15 [K]                            -77.30104805 [Eh]

  Enthalpy, H_trans = E_trans + k_B * T
    Electronic H            0.000 [kcal/mol]        0.000 [kJ/mol]       0.00000000 [Eh]
    Translational H         1.481 [kcal/mol]        6.197 [kJ/mol]       0.00236046 [Eh]
    Rotational H            0.592 [kcal/mol]        2.479 [kJ/mol]       0.00094418 [Eh]
    Vibrational H          18.270 [kcal/mol]       76.441 [kJ/mol]       0.02911488 [Eh]
  Correction H             20.344 [kcal/mol]       85.117 [kJ/mol]       0.03241952 [Eh]
  Total H, Enthalpy at  298.15 [K]                                     -77.30010387 [Eh]

  Gibbs free energy, G = H - T * S
    Electronic G            0.000 [kcal/mol]        0.000 [kJ/mol]       0.00000000 [Eh]
    Translational G        -9.164 [kcal/mol]      -38.342 [kJ/mol]      -0.01460386 [Eh]
    Rotational G           -2.673 [kcal/mol]      -11.183 [kJ/mol]      -0.00425956 [Eh]
    Vibrational G          16.689 [kcal/mol]       69.825 [kJ/mol]       0.02659484 [Eh]
  Correction G              4.852 [kcal/mol]       20.299 [kJ/mol]       0.00773142 [Eh]
  Total G, Free enthalpy at  298.15 [K]                                -77.32479198 [Eh]

*** Psi4 exiting successfully. Buy a developer a beer!
