                               Psi4 1.3.2 release

  ==> Input File <==

--------------------------------------------------------------------------
set basis  6-31G
molecule {
0 1
   O        0.00000        0.00000       -0.06797
   H        0.74903        0.00000        0.53936
   H       -0.74903        0.00000        0.53936
}
energy('m06-2x')
frequencies('m06-2x')

--------------------------------------------------------------------------

    Molecular point group: c2v
  Charge       = 0
  Multiplicity = 1
  Basis Set: 6-31G
    Blend: 6-31G
  Basis Set: (6-31G AUX)
    Blend: CC-PVDZ-JKFIT
  @DF-RKS Final Energy:   -76.34832203101531
    Total Energy =                        -76.3483220310153001
    Molecular point group: c2v
  Basis Set: 6-31G
    Blend: 6-31G
  Basis Set: (6-31G AUX)
    Blend: CC-PVDZ-JKFIT
  @DF-RKS Final Energy:   -76.34832203101857
    Total Energy =                        -76.3483220310185828
  Basis Set: 6-31G
    Blend: 6-31G
  Basis Set: (6-31G AUX)
    Blend: CC-PVDZ-JKFIT
  Basis Set: 6-31G
    Blend: 6-31G
  Basis Set: (6-31G AUX)
    Blend: CC-PVDZ-JKFIT
  @DF-RKS Final Energy:   -76.34832203101853
    Total Energy =                        -76.3483220310185260
  Basis Set: 6-31G
  @DF-RKS Final Energy:   -76.34830038979054
    Total Energy =                        -76.3483003897905377
  @DF-RKS Final Energy:   -76.34833753572433
    Total Energy =                        -76.3483375357243261
  @DF-RKS Final Energy:   -76.34818815283741
    Total Energy =                        -76.3481881528374231
  Basis Set: (6-31G AUX)
    Blend: CC-PVDZ-JKFIT
  Basis Set: 6-31G
    Blend: 6-31G
  Basis Set: (6-31G AUX)
    Blend: CC-PVDZ-JKFIT
  @DF-RKS Final Energy:   -76.34844547753548
    Total Energy =                        -76.3484454775354919
  Basis Set: 6-31G
    Blend: 6-31G
  Basis Set: (6-31G AUX)
    Blend: CC-PVDZ-JKFIT
    Molecular point group: cs
  Charge       = 0
  Multiplicity = 1
  Basis Set: 6-31G
    Blend: 6-31G
  Basis Set: (6-31G AUX)
    Blend: CC-PVDZ-JKFIT

    Orbital Energies [Eh]
    ---------------------

    Doubly Occupied:

       1Ap   -19.626005     2Ap    -1.136265     3Ap    -0.595871
       4Ap    -0.442855     1App   -0.378054

  @DF-RKS Final Energy:   -76.34831472643039

   => Energetics <=

    Nuclear Repulsion Energy =              9.1334682877742281
    One-Electron Energy =                -122.8929433466746701
    Two-Electron Energy =                  41.8929490577210473
    DFT Exchange-Correlation Energy =      -4.4817887252509800
    Empirical Dispersion Energy =           0.0000000000000000
    VV10 Nonlocal Energy =                  0.0000000000000000
    Total Energy =                        -76.3483147264303881

  Dipole Moment: [D]
     X:     0.0012      Y:     0.0000      Z:     2.5880     Total:     2.5880

    Molecular point group: cs

    Geometry (in Angstrom), charge = 0, multiplicity = 1:

       Center              X                  Y                   Z               Mass
    ------------   -----------------  -----------------  -----------------  -----------------
         O           -0.000175859669     0.000000000000    -0.067969259994    15.994914619570
         H            0.750425510279     0.000000000000     0.540492250436     1.007825032230
         H           -0.747634489721     0.000000000000     0.538229229576     1.007825032230

  Basis Set: 6-31G
    Blend: 6-31G
  Basis Set: (6-31G AUX)
    Blend: CC-PVDZ-JKFIT

  -Total Gradient:
     Atom            X                  Y                   Z
    ------   -----------------  -----------------  -----------------
       1       -0.003147569964     0.000000000000    -0.005090757308
       2       -0.016727651866     0.000000000000     0.003739836868
       3        0.019877947608     0.000000000000     0.001254731378

  Vibration                       7                   8                   9
  Freq [cm^-1]                1666.1231           3840.7435           3937.4295
  Irrep                           A1                  A1                  B1
  Reduced mass [u]              1.0863              1.0418              1.0793
  Force const [mDyne/A]         1.7767              9.0545              9.8585

  ==> Thermochemistry Components <==

  Entropy, S
    Electronic S            0.000 [cal/(mol K)]        0.000 [J/(mol K)]       0.00000000 [mEh/K] (multiplicity = 1)
    Translational S        34.608 [cal/(mol K)]      144.801 [J/(mol K)]       0.05515177 [mEh/K] (mol. weight = 18.0106 [u], P = 101325.00 [Pa])
    Rotational S           10.508 [cal/(mol K)]       43.968 [J/(mol K)]       0.01674635 [mEh/K] (symmetry no. = 2)
    Vibrational S           0.006 [cal/(mol K)]        0.024 [J/(mol K)]       0.00000923 [mEh/K]
  Total S                  45.123 [cal/(mol K)]      188.793 [J/(mol K)]       0.07190735 [mEh/K]
  Correction S              0.000 [cal/(mol K)]        0.000 [J/(mol K)]       0.00000000 [mEh/K]

  Constant volume heat capacity, Cv
    Electronic Cv           0.000 [cal/(mol K)]        0.000 [J/(mol K)]       0.00000000 [mEh/K]
    Translational Cv        2.981 [cal/(mol K)]       12.472 [J/(mol K)]       0.00475022 [mEh/K]
    Rotational Cv           2.981 [cal/(mol K)]       12.472 [J/(mol K)]       0.00475022 [mEh/K]
    Vibrational Cv          0.041 [cal/(mol K)]        0.173 [J/(mol K)]       0.00006603 [mEh/K]
  Total Cv                  6.003 [cal/(mol K)]       25.117 [J/(mol K)]       0.00956646 [mEh/K]
  Correction Cv             0.000 [cal/(mol K)]        0.000 [J/(mol K)]       0.00000000 [mEh/K]

  Constant pressure heat capacity, Cp
    Electronic Cp           0.000 [cal/(mol K)]        0.000 [J/(mol K)]       0.00000000 [mEh/K]
    Translational Cp        4.968 [cal/(mol K)]       20.786 [J/(mol K)]       0.00791703 [mEh/K]
    Rotational Cp           2.981 [cal/(mol K)]       12.472 [J/(mol K)]       0.00475022 [mEh/K]
    Vibrational Cp          0.041 [cal/(mol K)]        0.173 [J/(mol K)]       0.00006603 [mEh/K]
  Total Cp                  7.990 [cal/(mol K)]       33.431 [J/(mol K)]       0.01273327 [mEh/K]
  Correction Cp             0.000 [cal/(mol K)]        0.000 [J/(mol K)]       0.00000000 [mEh/K]

  ==> Thermochemistry Energy Analysis <==

  Raw electronic energy, E0
  Total E0, Electronic energy at well bottom at 0 [K]                  -76.34832203 [Eh]

  Zero-point energy, ZPE_vib = Sum_i nu_i / 2
    Electronic ZPE          0.000 [kcal/mol]        0.000 [kJ/mol]       0.00000000 [Eh]
    Translational ZPE       0.000 [kcal/mol]        0.000 [kJ/mol]       0.00000000 [Eh]
    Rotational ZPE          0.000 [kcal/mol]        0.000 [kJ/mol]       0.00000000 [Eh]
    Vibrational ZPE        13.501 [kcal/mol]       56.489 [kJ/mol]       0.02151569 [Eh]        4722.148 [cm^-1]
  Correction ZPE           13.501 [kcal/mol]       56.489 [kJ/mol]       0.02151569 [Eh]        4722.148 [cm^-1]
  Total ZPE, Electronic energy at 0 [K]                                -76.32680634 [Eh]

  Thermal Energy, E (includes ZPE)
    Electronic E            0.000 [kcal/mol]        0.000 [kJ/mol]       0.00000000 [Eh]
    Translational E         0.889 [kcal/mol]        3.718 [kJ/mol]       0.00141628 [Eh]
    Rotational E            0.889 [kcal/mol]        3.718 [kJ/mol]       0.00141628 [Eh]
    Vibrational E          13.503 [kcal/mol]       56.496 [kJ/mol]       0.02151814 [Eh]
  Correction E             15.280 [kcal/mol]       63.933 [kJ/mol]       0.02435069 [Eh]
  Total E, Electronic energy at  298.15 [K]                            -76.32397134 [Eh]

  Enthalpy, H_trans = E_trans + k_B * T
    Electronic H            0.000 [kcal/mol]        0.000 [kJ/mol]       0.00000000 [Eh]
    Translational H         1.481 [kcal/mol]        6.197 [kJ/mol]       0.00236046 [Eh]
    Rotational H            0.889 [kcal/mol]        3.718 [kJ/mol]       0.00141628 [Eh]
    Vibrational H          13.503 [kcal/mol]       56.496 [kJ/mol]       0.02151814 [Eh]
  Correction H             15.873 [kcal/mol]       66.412 [kJ/mol]       0.02529488 [Eh]
  Total H, Enthalpy at  298.15 [K]                                     -76.32302716 [Eh]

  Gibbs free energy, G = H - T * S
    Electronic G            0.000 [kcal/mol]        0.000 [kJ/mol]       0.00000000 [Eh]
    Translational G        -8.837 [kcal/mol]      -36.975 [kJ/mol]      -0.01408304 [Eh]
    Rotational G           -2.244 [kcal/mol]       -9.390 [kJ/mol]      -0.00357665 [Eh]
    Vibrational G          13.501 [kcal/mol]       56.489 [kJ/mol]       0.02151539 [Eh]
  Correction G              2.419 [kcal/mol]       10.123 [kJ/mol]       0.00385570 [Eh]
  Total G, Free enthalpy at  298.15 [K]                                -76.34446633 [Eh]

*** Psi4 exiting successfully. Buy a developer a beer!
