                               Psi4 1.3.2 release

  ==> Input File <==

--------------------------------------------------------------------------
set basis  6-31++G**
molecule {
0 1
   O        0.00000        0.00000       -0.06797
   H        0.74903        0.00000        0.53936
   H       -0.74903        0.00000        0.53936
}
energy('scf')
frequencies('scf')

--------------------------------------------------------------------------

    Molecular point group: c2v
  Charge       = 0
  Multiplicity = 1
  Basis Set: 6-31++G**
    Blend: 6-31++G**
  Basis Set: (6-31++G** AUX)
    Blend: AUG-CC-PVDZ-JKFIT
  @DF-RHF Final Energy:   -76.02982256212047
    Total Energy =                        -76.0298225621204864
    Molecular point group: c2v
  Basis Set: 6-31++G**
    Blend: 6-31++G**
  Basis Set: (6-31++G** AUX)
    Blend: AUG-CC-PVDZ-JKFIT
  @DF-RHF Final Energy:   -76.02982256214774
    Total Energy =                        -76.0298225621477428
  Basis Set: 6-31++G**
    Blend: 6-31++G**
  Basis Set: (6-31++G** AUX)
    Blend: AUG-CC-PVDZ-JKFIT

  -Total Gradient:
     Atom            X                  Y                   Z
    ------   -----------------  -----------------  -----------------
       1        0.000000000000    -0.000000000000    -0.037785885359
       2        0.011516727447     0.000000000000     0.018892942679
       3       -0.011516727447    -0.000000000000     0.018892942679

  Charge       = 0
  Multiplicity = 1
  Basis Set: 6-31++G**
    Blend: 6-31++G**
  Basis Set: (6-31++G** AUX)
    Blend: AUG-CC-PVDZ-JKFIT

    Orbital Energies [Eh]
    ---------------------

    Doubly Occupied:

       1A1   -20.584860     2A1    -1.355051     1B1    -0.711111
       3A1    -0.587358     1B2    -0.509572

  @DF-RHF Final Energy:   -76.02982256214774

   => Energetics <=

    Nuclear Repulsion Energy =              9.1334334609951409
    One-Electron Energy =                -122.8306073343160136
    Two-Electron Energy =                  37.6673513111731353
    Total Energy =                        -76.0298225621477428

  Dipole Moment: [D]
     X:     0.0000      Y:     0.0000      Z:     2.3372     Total:     2.3372

    Molecular point group: c2v
  Basis Set: 6-31++G**
    Blend: 6-31++G**
  Basis Set: (6-31++G** AUX)
    Blend: AUG-CC-PVDZ-JKFIT
  Basis Set: (6-31++G** AUX)
    Blend: AUG-CC-PVDZ-JKFIT
    Molecular point group: c2v

    Geometry (in Angstrom), charge = 0, multiplicity = 1:

       Center              X                  Y                   Z               Mass
    ------------   -----------------  -----------------  -----------------  -----------------
         O            0.000000000000     0.000000000000    -0.067969259994    15.994914619570
         H            0.749030000000     0.000000000000     0.539360740006     1.007825032230
         H           -0.749030000000    -0.000000000000     0.539360740006     1.007825032230

  Basis Set: 6-31++G**
    Blend: 6-31++G**
  Basis Set: (6-31++G** AUX)
    Blend: AUG-CC-PVDZ-JKFIT

  Vibration                       4                   5                   6
  Freq [cm^-1]                 461.8779            559.2120            697.1437
  Irrep                           A2                  B1                  B2
  Reduced mass [u]              1.0078              1.0474              1.1259
  Force const [mDyne/A]         0.1267              0.1930              0.3224

  IR activ [km/mol]             0.0000             127.3521            349.5914

  Vibration                       7                   8                   9
  Freq [cm^-1]                1822.2747           3875.1757           3952.5082
  Irrep                           A1                  A1                  B1
  Reduced mass [u]              1.0807              1.0470              1.0803
  Force const [mDyne/A]         2.1145              9.2633              9.9434

  IR activ [km/mol]            95.4061             18.6816             61.6257

  ==> Thermochemistry Components <==

  Entropy, S
    Electronic S            0.000 [cal/(mol K)]        0.000 [J/(mol K)]       0.00000000 [mEh/K] (multiplicity = 1)
    Translational S        34.608 [cal/(mol K)]      144.801 [J/(mol K)]       0.05515177 [mEh/K] (mol. weight = 18.0106 [u], P = 101325.00 [Pa])
    Rotational S           10.508 [cal/(mol K)]       43.968 [J/(mol K)]       0.01674635 [mEh/K] (symmetry no. = 2)
    Vibrational S           1.599 [cal/(mol K)]        6.688 [J/(mol K)]       0.00254737 [mEh/K]
  Total S                  46.715 [cal/(mol K)]      195.457 [J/(mol K)]       0.07444550 [mEh/K]
  Correction S              0.000 [cal/(mol K)]        0.000 [J/(mol K)]       0.00000000 [mEh/K]

  Constant volume heat capacity, Cv
    Electronic Cv           0.000 [cal/(mol K)]        0.000 [J/(mol K)]       0.00000000 [mEh/K]
    Translational Cv        2.981 [cal/(mol K)]       12.472 [J/(mol K)]       0.00475022 [mEh/K]
    Rotational Cv           2.981 [cal/(mol K)]       12.472 [J/(mol K)]       0.00475022 [mEh/K]
    Vibrational Cv          3.312 [cal/(mol K)]       13.858 [J/(mol K)]       0.00527833 [mEh/K]
  Total Cv                  9.274 [cal/(mol K)]       38.802 [J/(mol K)]       0.01477877 [mEh/K]
  Correction Cv             0.000 [cal/(mol K)]        0.000 [J/(mol K)]       0.00000000 [mEh/K]

  Constant pressure heat capacity, Cp
    Electronic Cp           0.000 [cal/(mol K)]        0.000 [J/(mol K)]       0.00000000 [mEh/K]
    Translational Cp        4.968 [cal/(mol K)]       20.786 [J/(mol K)]       0.00791703 [mEh/K]
    Rotational Cp           2.981 [cal/(mol K)]       12.472 [J/(mol K)]       0.00475022 [mEh/K]
    Vibrational Cp          3.312 [cal/(mol K)]       13.858 [J/(mol K)]       0.00527833 [mEh/K]
  Total Cp                 11.261 [cal/(mol K)]       47.116 [J/(mol K)]       0.01794558 [mEh/K]
  Correction Cp             0.000 [cal/(mol K)]        0.000 [J/(mol K)]       0.00000000 [mEh/K]

  ==> Thermochemistry Energy Analysis <==

  Raw electronic energy, E0
  Total E0, Electronic energy at well bottom at 0 [K]                  -76.02982256 [Eh]

  Zero-point energy, ZPE_vib = Sum_i nu_i / 2
    Electronic ZPE          0.000 [kcal/mol]        0.000 [kJ/mol]       0.00000000 [Eh]
    Translational ZPE       0.000 [kcal/mol]        0.000 [kJ/mol]       0.00000000 [Eh]
    Rotational ZPE          0.000 [kcal/mol]        0.000 [kJ/mol]       0.00000000 [Eh]
    Vibrational ZPE        16.252 [kcal/mol]       67.997 [kJ/mol]       0.02589865 [Eh]        5684.096 [cm^-1]
  Correction ZPE           16.252 [kcal/mol]       67.997 [kJ/mol]       0.02589865 [Eh]        5684.096 [cm^-1]
  Total ZPE, Electronic energy at 0 [K]                                -76.00392391 [Eh]

  Thermal Energy, E (includes ZPE)
    Electronic E            0.000 [kcal/mol]        0.000 [kJ/mol]       0.00000000 [Eh]
    Translational E         0.889 [kcal/mol]        3.718 [kJ/mol]       0.00141628 [Eh]
    Rotational E            0.889 [kcal/mol]        3.718 [kJ/mol]       0.00141628 [Eh]
    Vibrational E          16.599 [kcal/mol]       69.448 [kJ/mol]       0.02645144 [Eh]
  Correction E             18.376 [kcal/mol]       76.885 [kJ/mol]       0.02928400 [Eh]
  Total E, Electronic energy at  298.15 [K]                            -76.00053856 [Eh]

  Enthalpy, H_trans = E_trans + k_B * T
    Electronic H            0.000 [kcal/mol]        0.000 [kJ/mol]       0.00000000 [Eh]
    Translational H         1.481 [kcal/mol]        6.197 [kJ/mol]       0.00236046 [Eh]
    Rotational H            0.889 [kcal/mol]        3.718 [kJ/mol]       0.00141628 [Eh]
    Vibrational H          16.599 [kcal/mol]       69.448 [kJ/mol]       0.02645144 [Eh]
  Correction H             18.968 [kcal/mol]       79.364 [kJ/mol]       0.03022818 [Eh]
  Total H, Enthalpy at  298.15 [K]                                     -75.99959438 [Eh]

  Gibbs free energy, G = H - T * S
    Electronic G            0.000 [kcal/mol]        0.000 [kJ/mol]       0.00000000 [Eh]
    Translational G        -8.837 [kcal/mol]      -36.975 [kJ/mol]      -0.01408304 [Eh]
    Rotational G           -2.244 [kcal/mol]       -9.390 [kJ/mol]      -0.00357665 [Eh]
    Vibrational G          16.122 [kcal/mol]       67.454 [kJ/mol]       0.02569194 [Eh]
  Correction G              5.040 [kcal/mol]       21.089 [kJ/mol]       0.00803226 [Eh]
  Total G, Free enthalpy at  298.15 [K]                                -76.02179031 [Eh]

*** Psi4 exiting successfully. Buy a developer a beer!
