                               Psi4 1.3.2 release

  ==> Input File <==

--------------------------------------------------------------------------
set basis  aug-cc-pVTZ
molecule {
0 1
   C       -0.61446        0.00000        0.00000
   C        0.61446        0.00000        0.00000
   H       -1.68923        0.00000        0.00000
   H        1.68923        0.00000        0.00000
}
energy('m06-2x')
frequencies('m06-2x')
--------------------------------------------------------------------------

    Molecular point group: d2h
  Charge       = 0
  Multiplicity = 1
  Basis Set: AUG-CC-PVTZ
    Blend: AUG-CC-PVTZ
  Basis Set: (AUG-CC-PVTZ AUX)
    Blend: AUG-CC-PVTZ-JKFIT
  @DF-RKS Final Energy:   -77.32272988676932
    Total Energy =                        -77.3227298867693094
    Molecular point group: d2h
  Basis Set: AUG-CC-PVTZ
    Blend: AUG-CC-PVTZ
  Basis Set: (AUG-CC-PVTZ AUX)
    Blend: AUG-CC-PVTZ-JKFIT
  @DF-RKS Final Energy:   -77.32272988694078
    Total Energy =                        -77.3227298869407775
  Basis Set: AUG-CC-PVTZ
    Blend: AUG-CC-PVTZ
  Basis Set: (AUG-CC-PVTZ AUX)
    Blend: AUG-CC-PVTZ-JKFIT
  Basis Set: AUG-CC-PVTZ
    Blend: AUG-CC-PVTZ
  Basis Set: (AUG-CC-PVTZ AUX)
    Blend: AUG-CC-PVTZ-JKFIT
  @DF-RKS Final Energy:   -77.32272988694078
    Total Energy =                        -77.3227298869407775
  Basis Set: AUG-CC-PVTZ
  @DF-RKS Final Energy:   -77.32260370026650
    Total Energy =                        -77.3226037002664981
  @DF-RKS Final Energy:   -77.32285125758517
    Total Energy =                        -77.3228512575851568
  @DF-RKS Final Energy:   -77.32266523208160
    Total Energy =                        -77.3226652320816044
  @DF-RKS Final Energy:   -77.32278494408401
    Total Energy =                        -77.3227849440840060
  @DF-RKS Final Energy:   -77.32272974747210
    Total Energy =                        -77.3227297474720814
  @DF-RKS Final Energy:   -77.32272971958567
    Total Energy =                        -77.3227297195856522
  @DF-RKS Final Energy:   -77.32272974749620
    Total Energy =                        -77.3227297474961972
  @DF-RKS Final Energy:   -77.32272971965386
    Total Energy =                        -77.3227297196538643
  @DF-RKS Final Energy:   -77.32272955396908
    Total Energy =                        -77.3227295539690829
  Basis Set: (AUG-CC-PVTZ AUX)
    Blend: AUG-CC-PVTZ-JKFIT
  Basis Set: AUG-CC-PVTZ
    Blend: AUG-CC-PVTZ
  Basis Set: (AUG-CC-PVTZ AUX)
    Blend: AUG-CC-PVTZ-JKFIT
  @DF-RKS Final Energy:   -77.32272955404287
    Total Energy =                        -77.3227295540428656
  Basis Set: AUG-CC-PVTZ
    Blend: AUG-CC-PVTZ
  Basis Set: (AUG-CC-PVTZ AUX)
    Blend: AUG-CC-PVTZ-JKFIT
    Molecular point group: c2v
  Charge       = 0
  Multiplicity = 1
  Basis Set: AUG-CC-PVTZ
    Blend: AUG-CC-PVTZ
  Basis Set: (AUG-CC-PVTZ AUX)
    Blend: AUG-CC-PVTZ-JKFIT

    Orbital Energies [Eh]
    ---------------------

    Doubly Occupied:

       1A1   -10.558836     2A1   -10.556495     3A1    -0.846789
       4A1    -0.648008     5A1    -0.563476     1B2    -0.353628
       1B1    -0.353628

  @DF-RKS Final Energy:   -77.32272470005275

   => Energetics <=

    Nuclear Repulsion Energy =             24.3232393838559098
    One-Electron Energy =                -150.9911773762573830
    Two-Electron Energy =                  54.8622600863568763
    DFT Exchange-Correlation Energy =      -5.5170467940081345
    Empirical Dispersion Energy =           0.0000000000000000
    VV10 Nonlocal Energy =                  0.0000000000000000
    Total Energy =                        -77.3227247000527314

  Dipole Moment: [D]
     X:     0.0042      Y:     0.0000      Z:     0.0000     Total:     0.0042

    Molecular point group: c2v

    Geometry (in Angstrom), charge = 0, multiplicity = 1:

       Center              X                  Y                   Z               Mass
    ------------   -----------------  -----------------  -----------------  -----------------
         C           -0.614610333491     0.000000000000     0.000000000000    12.000000000000
         C            0.614309666509     0.000000000000     0.000000000000    12.000000000000
         H           -1.687440004874     0.000000000000     0.000000000000     1.007825032230
         H            1.691019995126     0.000000000000     0.000000000000     1.007825032230

  Basis Set: AUG-CC-PVTZ
    Blend: AUG-CC-PVTZ
  Basis Set: (AUG-CC-PVTZ AUX)
    Blend: AUG-CC-PVTZ-JKFIT

  -Total Gradient:
     Atom            X                  Y                   Z
    ------   -----------------  -----------------  -----------------
       1       -0.061923623474     0.000000000000     0.000000000000
       2        0.059095069458     0.000000000000     0.000000000000
       3       -0.007058107629     0.000000000000     0.000000000000
       4        0.009886163777     0.000000000000     0.000000000000

  Vibration                       4                   5                   6
  Freq [cm^-1]                 310.0136            310.0138            742.4200
  Irrep                          B1g                 B2g                 B2g
  Reduced mass [u]              2.0799              2.0799              1.6813
  Force const [mDyne/A]         0.1178              0.1178              0.5460

  Vibration                       7                   8                   9
  Freq [cm^-1]                 742.4203            836.9161            836.9164
  Irrep                          B1g                 B2u                 B1u
  Reduced mass [u]              1.6813              1.0848              1.0848
  Force const [mDyne/A]         0.5460              0.4477              0.4477

  Vibration                       10                  11                  12
  Freq [cm^-1]                1911.6318           3310.6885           3402.9139
  Irrep                           Ag                 B3u                  Ag
  Reduced mass [u]              4.0254              1.0848              1.2090
  Force const [mDyne/A]         8.6669              7.0056              8.2484

  ==> Thermochemistry Components <==

  Entropy, S
    Electronic S            0.000 [cal/(mol K)]        0.000 [J/(mol K)]       0.00000000 [mEh/K] (multiplicity = 1)
    Translational S        35.704 [cal/(mol K)]      149.387 [J/(mol K)]       0.05689862 [mEh/K] (mol. weight = 26.0157 [u], P = 101325.00 [Pa])
    Rotational S           10.952 [cal/(mol K)]       45.824 [J/(mol K)]       0.01745345 [mEh/K] (symmetry no. = 2)
    Vibrational S           3.604 [cal/(mol K)]       15.080 [J/(mol K)]       0.00574385 [mEh/K]
  Total S                  50.261 [cal/(mol K)]      210.292 [J/(mol K)]       0.08009592 [mEh/K]
  Correction S              0.000 [cal/(mol K)]        0.000 [J/(mol K)]       0.00000000 [mEh/K]

  Constant volume heat capacity, Cv
    Electronic Cv           0.000 [cal/(mol K)]        0.000 [J/(mol K)]       0.00000000 [mEh/K]
    Translational Cv        2.981 [cal/(mol K)]       12.472 [J/(mol K)]       0.00475022 [mEh/K]
    Rotational Cv           1.987 [cal/(mol K)]        8.314 [J/(mol K)]       0.00316681 [mEh/K]
    Vibrational Cv          6.010 [cal/(mol K)]       25.147 [J/(mol K)]       0.00957782 [mEh/K]
  Total Cv                 10.978 [cal/(mol K)]       45.933 [J/(mol K)]       0.01749484 [mEh/K]
  Correction Cv             0.000 [cal/(mol K)]        0.000 [J/(mol K)]       0.00000000 [mEh/K]

  Constant pressure heat capacity, Cp
    Electronic Cp           0.000 [cal/(mol K)]        0.000 [J/(mol K)]       0.00000000 [mEh/K]
    Translational Cp        4.968 [cal/(mol K)]       20.786 [J/(mol K)]       0.00791703 [mEh/K]
    Rotational Cp           1.987 [cal/(mol K)]        8.314 [J/(mol K)]       0.00316681 [mEh/K]
    Vibrational Cp          6.010 [cal/(mol K)]       25.147 [J/(mol K)]       0.00957782 [mEh/K]
  Total Cp                 12.965 [cal/(mol K)]       54.247 [J/(mol K)]       0.02066165 [mEh/K]
  Correction Cp             0.000 [cal/(mol K)]        0.000 [J/(mol K)]       0.00000000 [mEh/K]

  ==> Thermochemistry Energy Analysis <==

  Raw electronic energy, E0
  Total E0, Electronic energy at well bottom at 0 [K]                  -77.32272989 [Eh]

  Zero-point energy, ZPE_vib = Sum_i nu_i / 2
    Electronic ZPE          0.000 [kcal/mol]        0.000 [kJ/mol]       0.00000000 [Eh]
    Translational ZPE       0.000 [kcal/mol]        0.000 [kJ/mol]       0.00000000 [Eh]
    Rotational ZPE          0.000 [kcal/mol]        0.000 [kJ/mol]       0.00000000 [Eh]
    Vibrational ZPE        17.732 [kcal/mol]       74.192 [kJ/mol]       0.02825824 [Eh]        6201.967 [cm^-1]
  Correction ZPE           17.732 [kcal/mol]       74.192 [kJ/mol]       0.02825824 [Eh]        6201.967 [cm^-1]
  Total ZPE, Electronic energy at 0 [K]                                -77.29447165 [Eh]

  Thermal Energy, E (includes ZPE)
    Electronic E            0.000 [kcal/mol]        0.000 [kJ/mol]       0.00000000 [Eh]
    Translational E         0.889 [kcal/mol]        3.718 [kJ/mol]       0.00141628 [Eh]
    Rotational E            0.592 [kcal/mol]        2.479 [kJ/mol]       0.00094418 [Eh]
    Vibrational E          18.452 [kcal/mol]       77.203 [kJ/mol]       0.02940493 [Eh]
  Correction E             19.933 [kcal/mol]       83.400 [kJ/mol]       0.03176539 [Eh]
  Total E, Electronic energy at  298.15 [K]                            -77.29096450 [Eh]

  Enthalpy, H_trans = E_trans + k_B * T
    Electronic H            0.000 [kcal/mol]        0.000 [kJ/mol]       0.00000000 [Eh]
    Translational H         1.481 [kcal/mol]        6.197 [kJ/mol]       0.00236046 [Eh]
    Rotational H            0.592 [kcal/mol]        2.479 [kJ/mol]       0.00094418 [Eh]
    Vibrational H          18.452 [kcal/mol]       77.203 [kJ/mol]       0.02940493 [Eh]
  Correction H             20.526 [kcal/mol]       85.879 [kJ/mol]       0.03270957 [Eh]
  Total H, Enthalpy at  298.15 [K]                                     -77.29002032 [Eh]

  Gibbs free energy, G = H - T * S
    Electronic G            0.000 [kcal/mol]        0.000 [kJ/mol]       0.00000000 [Eh]
    Translational G        -9.164 [kcal/mol]      -38.342 [kJ/mol]      -0.01460386 [Eh]
    Rotational G           -2.673 [kcal/mol]      -11.183 [kJ/mol]      -0.00425956 [Eh]
    Vibrational G          17.377 [kcal/mol]       72.706 [kJ/mol]       0.02769240 [Eh]
  Correction G              5.540 [kcal/mol]       23.180 [kJ/mol]       0.00882897 [Eh]
  Total G, Free enthalpy at  298.15 [K]                                -77.31390091 [Eh]

*** Psi4 exiting successfully. Buy a developer a beer!
