                               Psi4 1.3.2 release

  ==> Input File <==

--------------------------------------------------------------------------
set basis  6-31++G**
molecule {
0 1
   O        0.00000        0.00000       -0.06797
   H        0.74903        0.00000        0.53936
   H       -0.74903        0.00000        0.53936
}
energy('B3LYP')
frequencies('B3LYP')

--------------------------------------------------------------------------

    Molecular point group: c2v
  Charge       = 0
  Multiplicity = 1
  Basis Set: 6-31++G**
    Blend: 6-31++G**
  Basis Set: (6-31++G** AUX)
    Blend: AUG-CC-PVDZ-JKFIT
  @DF-RKS Final Energy:   -76.43377239819802
    Total Energy =                        -76.4337723981980020
    Molecular point group: c2v
  Basis Set: 6-31++G**
    Blend: 6-31++G**
  Basis Set: (6-31++G** AUX)
    Blend: AUG-CC-PVDZ-JKFIT
  @DF-RKS Final Energy:   -76.43377239819998
    Total Energy =                        -76.4337723981999773
  Basis Set: 6-31++G**
    Blend: 6-31++G**
  Basis Set: (6-31++G** AUX)
    Blend: AUG-CC-PVDZ-JKFIT
  Basis Set: 6-31++G**
    Blend: 6-31++G**
  Basis Set: (6-31++G** AUX)
    Blend: AUG-CC-PVDZ-JKFIT
  @DF-RKS Final Energy:   -76.43377239819998
    Total Energy =                        -76.4337723981999773
  Basis Set: 6-31++G**
  @DF-RKS Final Energy:   -76.43374942855705
    Total Energy =                        -76.4337494285570500
  @DF-RKS Final Energy:   -76.43378882879958
    Total Energy =                        -76.4337888287995639
  @DF-RKS Final Energy:   -76.43372513979558
    Total Energy =                        -76.4337251397955839
  Basis Set: (6-31++G** AUX)
    Blend: AUG-CC-PVDZ-JKFIT
  Basis Set: 6-31++G**
    Blend: 6-31++G**
  Basis Set: (6-31++G** AUX)
    Blend: AUG-CC-PVDZ-JKFIT
  @DF-RKS Final Energy:   -76.43380974022251
    Total Energy =                        -76.4338097402225145
  Basis Set: 6-31++G**
    Blend: 6-31++G**
  Basis Set: (6-31++G** AUX)
    Blend: AUG-CC-PVDZ-JKFIT
    Molecular point group: cs
  Charge       = 0
  Multiplicity = 1
  Basis Set: 6-31++G**
    Blend: 6-31++G**
  Basis Set: (6-31++G** AUX)
    Blend: AUG-CC-PVDZ-JKFIT

    Orbital Energies [Eh]
    ---------------------

    Doubly Occupied:

       1Ap   -19.171022     2Ap    -1.025599     3Ap    -0.535745
       4Ap    -0.401504     1App   -0.321923

  @DF-RKS Final Energy:   -76.43376510095462

   => Energetics <=

    Nuclear Repulsion Energy =              9.1334682877742281
    One-Electron Energy =                -122.8144510785275259
    Two-Electron Energy =                  44.7792722890674710
    DFT Exchange-Correlation Energy =      -7.5320545992687959
    Empirical Dispersion Energy =           0.0000000000000000
    VV10 Nonlocal Energy =                  0.0000000000000000
    Total Energy =                        -76.4337651009546022

  Dipole Moment: [D]
     X:     0.0026      Y:     0.0000      Z:     2.2454     Total:     2.2454

    Molecular point group: cs

    Geometry (in Angstrom), charge = 0, multiplicity = 1:

       Center              X                  Y                   Z               Mass
    ------------   -----------------  -----------------  -----------------  -----------------
         O           -0.000175859669     0.000000000000    -0.067969259994    15.994914619570
         H            0.750425510279     0.000000000000     0.540492250436     1.007825032230
         H           -0.747634489721     0.000000000000     0.538229229576     1.007825032230

  Basis Set: 6-31++G**
    Blend: 6-31++G**
  Basis Set: (6-31++G** AUX)
    Blend: AUG-CC-PVDZ-JKFIT

  -Total Gradient:
     Atom            X                  Y                   Z
    ------   -----------------  -----------------  -----------------
       1       -0.003118598540     0.000000000000    -0.005267793996
       2       -0.004453784039     0.000000000000     0.003874588742
       3        0.007570107318     0.000000000000     0.001376946343

  Vibration                       7                   8                   9
  Freq [cm^-1]                1632.2171           3837.7952           3927.6983
  Irrep                           A1                  A1                  B1
  Reduced mass [u]              1.0813              1.0465              1.0793
  Force const [mDyne/A]         1.6973              9.0810              9.8098

  ==> Thermochemistry Components <==

  Entropy, S
    Electronic S            0.000 [cal/(mol K)]        0.000 [J/(mol K)]       0.00000000 [mEh/K] (multiplicity = 1)
    Translational S        34.608 [cal/(mol K)]      144.801 [J/(mol K)]       0.05515177 [mEh/K] (mol. weight = 18.0106 [u], P = 101325.00 [Pa])
    Rotational S           10.508 [cal/(mol K)]       43.968 [J/(mol K)]       0.01674635 [mEh/K] (symmetry no. = 2)
    Vibrational S           0.007 [cal/(mol K)]        0.028 [J/(mol K)]       0.00001067 [mEh/K]
  Total S                  45.123 [cal/(mol K)]      188.797 [J/(mol K)]       0.07190880 [mEh/K]
  Correction S              0.000 [cal/(mol K)]        0.000 [J/(mol K)]       0.00000000 [mEh/K]

  Constant volume heat capacity, Cv
    Electronic Cv           0.000 [cal/(mol K)]        0.000 [J/(mol K)]       0.00000000 [mEh/K]
    Translational Cv        2.981 [cal/(mol K)]       12.472 [J/(mol K)]       0.00475022 [mEh/K]
    Rotational Cv           2.981 [cal/(mol K)]       12.472 [J/(mol K)]       0.00475022 [mEh/K]
    Vibrational Cv          0.047 [cal/(mol K)]        0.196 [J/(mol K)]       0.00007464 [mEh/K]
  Total Cv                  6.008 [cal/(mol K)]       25.139 [J/(mol K)]       0.00957507 [mEh/K]
  Correction Cv             0.000 [cal/(mol K)]        0.000 [J/(mol K)]       0.00000000 [mEh/K]

  Constant pressure heat capacity, Cp
    Electronic Cp           0.000 [cal/(mol K)]        0.000 [J/(mol K)]       0.00000000 [mEh/K]
    Translational Cp        4.968 [cal/(mol K)]       20.786 [J/(mol K)]       0.00791703 [mEh/K]
    Rotational Cp           2.981 [cal/(mol K)]       12.472 [J/(mol K)]       0.00475022 [mEh/K]
    Vibrational Cp          0.047 [cal/(mol K)]        0.196 [J/(mol K)]       0.00007464 [mEh/K]
  Total Cp                  7.996 [cal/(mol K)]       33.454 [J/(mol K)]       0.01274188 [mEh/K]
  Correction Cp             0.000 [cal/(mol K)]        0.000 [J/(mol K)]       0.00000000 [mEh/K]

  ==> Thermochemistry Energy Analysis <==

  Raw electronic energy, E0
  Total E0, Electronic energy at well bottom at 0 [K]                  -76.43377240 [Eh]

  Zero-point energy, ZPE_vib = Sum_i nu_i / 2
    Electronic ZPE          0.000 [kcal/mol]        0.000 [kJ/mol]       0.00000000 [Eh]
    Translational ZPE       0.000 [kcal/mol]        0.000 [kJ/mol]       0.00000000 [Eh]
    Rotational ZPE          0.000 [kcal/mol]        0.000 [kJ/mol]       0.00000000 [Eh]
    Vibrational ZPE        13.435 [kcal/mol]       56.211 [kJ/mol]       0.02140956 [Eh]        4698.855 [cm^-1]
  Correction ZPE           13.435 [kcal/mol]       56.211 [kJ/mol]       0.02140956 [Eh]        4698.855 [cm^-1]
  Total ZPE, Electronic energy at 0 [K]                                -76.41236284 [Eh]

  Thermal Energy, E (includes ZPE)
    Electronic E            0.000 [kcal/mol]        0.000 [kJ/mol]       0.00000000 [Eh]
    Translational E         0.889 [kcal/mol]        3.718 [kJ/mol]       0.00141628 [Eh]
    Rotational E            0.889 [kcal/mol]        3.718 [kJ/mol]       0.00141628 [Eh]
    Vibrational E          13.436 [kcal/mol]       56.218 [kJ/mol]       0.02141238 [Eh]
  Correction E             15.214 [kcal/mol]       63.655 [kJ/mol]       0.02424494 [Eh]
  Total E, Electronic energy at  298.15 [K]                            -76.40952746 [Eh]

  Enthalpy, H_trans = E_trans + k_B * T
    Electronic H            0.000 [kcal/mol]        0.000 [kJ/mol]       0.00000000 [Eh]
    Translational H         1.481 [kcal/mol]        6.197 [kJ/mol]       0.00236046 [Eh]
    Rotational H            0.889 [kcal/mol]        3.718 [kJ/mol]       0.00141628 [Eh]
    Vibrational H          13.436 [kcal/mol]       56.218 [kJ/mol]       0.02141238 [Eh]
  Correction H             15.806 [kcal/mol]       66.134 [kJ/mol]       0.02518912 [Eh]
  Total H, Enthalpy at  298.15 [K]                                     -76.40858328 [Eh]

  Gibbs free energy, G = H - T * S
    Electronic G            0.000 [kcal/mol]        0.000 [kJ/mol]       0.00000000 [Eh]
    Translational G        -8.837 [kcal/mol]      -36.975 [kJ/mol]      -0.01408304 [Eh]
    Rotational G           -2.244 [kcal/mol]       -9.390 [kJ/mol]      -0.00357665 [Eh]
    Vibrational G          13.434 [kcal/mol]       56.210 [kJ/mol]       0.02140920 [Eh]
  Correction G              2.353 [kcal/mol]        9.844 [kJ/mol]       0.00374951 [Eh]
  Total G, Free enthalpy at  298.15 [K]                                -76.43002288 [Eh]

*** Psi4 exiting successfully. Buy a developer a beer!
