                               Psi4 1.3.2 release

  ==> Input File <==

--------------------------------------------------------------------------
set basis  6-31+g*
molecule {
0 1
   C       -0.61446        0.00000        0.00000
   C        0.61446        0.00000        0.00000
   H       -1.68923        0.00000        0.00000
   H        1.68923        0.00000        0.00000
}
energy('scf')
frequencies('scf')
--------------------------------------------------------------------------

    Molecular point group: d2h
  Charge       = 0
  Multiplicity = 1
  Basis Set: 6-31+G*
    Blend: 6-31+G*
  Basis Set: (6-31+G* AUX)
    Blend: HEAVY-AUG-CC-PVDZ-JKFIT
  @DF-RHF Final Energy:   -76.81895371668558
    Total Energy =                        -76.8189537166855843
    Molecular point group: d2h
  Basis Set: 6-31+G*
    Blend: 6-31+G*
  Basis Set: (6-31+G* AUX)
    Blend: HEAVY-AUG-CC-PVDZ-JKFIT
  @DF-RHF Final Energy:   -76.81895371670466
    Total Energy =                        -76.8189537167046410
  Basis Set: 6-31+G*
    Blend: 6-31+G*
  Basis Set: (6-31+G* AUX)
    Blend: HEAVY-AUG-CC-PVDZ-JKFIT

  -Total Gradient:
     Atom            X                  Y                   Z
    ------   -----------------  -----------------  -----------------
       1       -0.075137403043    -0.000000000000     0.000000000000
       2        0.075137403043     0.000000000000     0.000000000000
       3       -0.013797794552    -0.000000000000     0.000000000000
       4        0.013797794552     0.000000000000     0.000000000000

  Charge       = 0
  Multiplicity = 1
  Basis Set: 6-31+G*
    Blend: 6-31+G*
  Basis Set: (6-31+G* AUX)
    Blend: HEAVY-AUG-CC-PVDZ-JKFIT

    Orbital Energies [Eh]
    ---------------------

    Doubly Occupied:

       1Ag   -11.261490     1B3u  -11.258332     2Ag    -1.024348
       2B3u   -0.768778     3Ag    -0.677194     1B1u   -0.404085
       1B2u   -0.404085

  @DF-RHF Final Energy:   -76.81895371670466

   => Energetics <=

    Nuclear Repulsion Energy =             24.3232181713792350
    One-Electron Energy =                -150.6877213758106109
    Two-Electron Energy =                  49.5455494877267313
    Total Energy =                        -76.8189537167046410

  Dipole Moment: [D]
     X:     0.0000      Y:     0.0000      Z:     0.0000     Total:     0.0000

    Molecular point group: d2h
  Basis Set: 6-31+G*
    Blend: 6-31+G*
  Basis Set: (6-31+G* AUX)
    Blend: HEAVY-AUG-CC-PVDZ-JKFIT
  Basis Set: (6-31+G* AUX)
    Blend: HEAVY-AUG-CC-PVDZ-JKFIT
    Molecular point group: d2h

    Geometry (in Angstrom), charge = 0, multiplicity = 1:

       Center              X                  Y                   Z               Mass
    ------------   -----------------  -----------------  -----------------  -----------------
         C           -0.614460000000    -0.000000000000     0.000000000000    12.000000000000
         C            0.614460000000     0.000000000000     0.000000000000    12.000000000000
         H           -1.689230000000    -0.000000000000     0.000000000000     1.007825032230
         H            1.689230000000     0.000000000000     0.000000000000     1.007825032230

  Basis Set: 6-31+G*
    Blend: 6-31+G*
  Basis Set: (6-31+G* AUX)
    Blend: HEAVY-AUG-CC-PVDZ-JKFIT

  Vibration                       4                   5                   6
  Freq [cm^-1]                 361.7150            361.7150            860.5157
  Irrep                          B1g                 B2g                 B2g
  Reduced mass [u]              2.1882              2.1882              1.6167
  Force const [mDyne/A]         0.1687              0.1687              0.7053

  IR activ [km/mol]             0.0000              0.0000              0.0000

  Vibration                       7                   8                   9
  Freq [cm^-1]                 860.5157            945.3277            945.3277
  Irrep                          B1g                 B1u                 B2u
  Reduced mass [u]              1.6167              1.0848              1.0848
  Force const [mDyne/A]         0.7053              0.5712              0.5712

  IR activ [km/mol]             0.0000             143.5959            143.5959

  Vibration                       10                  11                  12
  Freq [cm^-1]                1996.5458           3436.1636           3524.9204
  Irrep                           Ag                 B3u                  Ag
  Reduced mass [u]              4.0518              1.0848              1.2066
  Force const [mDyne/A]         9.5159              7.5466              8.8332

  IR activ [km/mol]             0.0000             101.1299             0.0000

  ==> Thermochemistry Components <==

  Entropy, S
    Electronic S            0.000 [cal/(mol K)]        0.000 [J/(mol K)]       0.00000000 [mEh/K] (multiplicity = 1)
    Translational S        35.704 [cal/(mol K)]      149.387 [J/(mol K)]       0.05689862 [mEh/K] (mol. weight = 26.0157 [u], P = 101325.00 [Pa])
    Rotational S           10.952 [cal/(mol K)]       45.824 [J/(mol K)]       0.01745345 [mEh/K] (symmetry no. = 2)
    Vibrational S           2.791 [cal/(mol K)]       11.676 [J/(mol K)]       0.00444698 [mEh/K]
  Total S                  49.447 [cal/(mol K)]      206.887 [J/(mol K)]       0.07879905 [mEh/K]
  Correction S              0.000 [cal/(mol K)]        0.000 [J/(mol K)]       0.00000000 [mEh/K]

  Constant volume heat capacity, Cv
    Electronic Cv           0.000 [cal/(mol K)]        0.000 [J/(mol K)]       0.00000000 [mEh/K]
    Translational Cv        2.981 [cal/(mol K)]       12.472 [J/(mol K)]       0.00475022 [mEh/K]
    Rotational Cv           1.987 [cal/(mol K)]        8.314 [J/(mol K)]       0.00316681 [mEh/K]
    Vibrational Cv          5.109 [cal/(mol K)]       21.375 [J/(mol K)]       0.00814127 [mEh/K]
  Total Cv                 10.077 [cal/(mol K)]       42.161 [J/(mol K)]       0.01605830 [mEh/K]
  Correction Cv             0.000 [cal/(mol K)]        0.000 [J/(mol K)]       0.00000000 [mEh/K]

  Constant pressure heat capacity, Cp
    Electronic Cp           0.000 [cal/(mol K)]        0.000 [J/(mol K)]       0.00000000 [mEh/K]
    Translational Cp        4.968 [cal/(mol K)]       20.786 [J/(mol K)]       0.00791703 [mEh/K]
    Rotational Cp           1.987 [cal/(mol K)]        8.314 [J/(mol K)]       0.00316681 [mEh/K]
    Vibrational Cp          5.109 [cal/(mol K)]       21.375 [J/(mol K)]       0.00814127 [mEh/K]
  Total Cp                 12.064 [cal/(mol K)]       50.476 [J/(mol K)]       0.01922511 [mEh/K]
  Correction Cp             0.000 [cal/(mol K)]        0.000 [J/(mol K)]       0.00000000 [mEh/K]

  ==> Thermochemistry Energy Analysis <==

  Raw electronic energy, E0
  Total E0, Electronic energy at well bottom at 0 [K]                  -76.81895372 [Eh]

  Zero-point energy, ZPE_vib = Sum_i nu_i / 2
    Electronic ZPE          0.000 [kcal/mol]        0.000 [kJ/mol]       0.00000000 [Eh]
    Translational ZPE       0.000 [kcal/mol]        0.000 [kJ/mol]       0.00000000 [Eh]
    Rotational ZPE          0.000 [kcal/mol]        0.000 [kJ/mol]       0.00000000 [Eh]
    Vibrational ZPE        19.003 [kcal/mol]       79.508 [kJ/mol]       0.03028310 [Eh]        6646.373 [cm^-1]
  Correction ZPE           19.003 [kcal/mol]       79.508 [kJ/mol]       0.03028310 [Eh]        6646.373 [cm^-1]
  Total ZPE, Electronic energy at 0 [K]                                -76.78867061 [Eh]

  Thermal Energy, E (includes ZPE)
    Electronic E            0.000 [kcal/mol]        0.000 [kJ/mol]       0.00000000 [Eh]
    Translational E         0.889 [kcal/mol]        3.718 [kJ/mol]       0.00141628 [Eh]
    Rotational E            0.592 [kcal/mol]        2.479 [kJ/mol]       0.00094418 [Eh]
    Vibrational E          19.576 [kcal/mol]       81.907 [kJ/mol]       0.03119691 [Eh]
  Correction E             21.058 [kcal/mol]       88.105 [kJ/mol]       0.03355737 [Eh]
  Total E, Electronic energy at  298.15 [K]                            -76.78539634 [Eh]

  Enthalpy, H_trans = E_trans + k_B * T
    Electronic H            0.000 [kcal/mol]        0.000 [kJ/mol]       0.00000000 [Eh]
    Translational H         1.481 [kcal/mol]        6.197 [kJ/mol]       0.00236046 [Eh]
    Rotational H            0.592 [kcal/mol]        2.479 [kJ/mol]       0.00094418 [Eh]
    Vibrational H          19.576 [kcal/mol]       81.907 [kJ/mol]       0.03119691 [Eh]
  Correction H             21.650 [kcal/mol]       90.584 [kJ/mol]       0.03450156 [Eh]
  Total H, Enthalpy at  298.15 [K]                                     -76.78445216 [Eh]

  Gibbs free energy, G = H - T * S
    Electronic G            0.000 [kcal/mol]        0.000 [kJ/mol]       0.00000000 [Eh]
    Translational G        -9.164 [kcal/mol]      -38.342 [kJ/mol]      -0.01460386 [Eh]
    Rotational G           -2.673 [kcal/mol]      -11.183 [kJ/mol]      -0.00425956 [Eh]
    Vibrational G          18.744 [kcal/mol]       78.426 [kJ/mol]       0.02987104 [Eh]
  Correction G              6.907 [kcal/mol]       28.901 [kJ/mol]       0.01100762 [Eh]
  Total G, Free enthalpy at  298.15 [K]                                -76.80794610 [Eh]

*** Psi4 exiting successfully. Buy a developer a beer!
