                               Psi4 1.3.2 release

  ==> Input File <==

--------------------------------------------------------------------------
set basis  cc-pVDZ
molecule {
0 1
   C       -0.61446        0.00000        0.00000
   C        0.61446        0.00000        0.00000
   H       -1.68923        0.00000        0.00000
   H        1.68923        0.00000        0.00000
}
energy('MP2')
frequencies('MP2')
--------------------------------------------------------------------------

    Molecular point group: d2h
  Charge       = 0
  Multiplicity = 1
  Basis Set: CC-PVDZ
    Blend: CC-PVDZ
  Basis Set: (CC-PVDZ AUX)
    Blend: CC-PVDZ-JKFIT
  @DF-RHF Final Energy:   -76.82277906322825
    Total Energy =                        -76.8227790632282534
  Basis Set: (CC-PVDZ AUX)
    Blend: CC-PVDZ-RI
	 Reference Energy          =     -76.8227790632282534 [Eh]
	 Singles Energy            =      -0.0000000000000000 [Eh]
	 Same-Spin Energy          =      -0.0642323960781466 [Eh]
	 Opposite-Spin Energy      =      -0.2002444172158137 [Eh]
	 Correlation Energy        =      -0.2644768132939603 [Eh]
	 Total Energy              =     -77.0872558765222067 [Eh]
	 SCS Total Energy          =     -77.0844831625799429 [Eh]
    Molecular point group: d2h
  Basis Set: CC-PVDZ
    Blend: CC-PVDZ
  Basis Set: (CC-PVDZ AUX)
    Blend: CC-PVDZ-JKFIT
  @DF-RHF Final Energy:   -76.82277906322830
    Total Energy =                        -76.8227790632282961
  Basis Set: (CC-PVDZ AUX)
  @DF-RHF Final Energy:   -76.82277906322830
    Total Energy =                        -76.8227790632282961
  @DF-RHF Final Energy:   -76.82262668031589
    Total Energy =                        -76.8226266803158921
  @DF-RHF Final Energy:   -76.82292610807090
    Total Energy =                        -76.8229261080709023
  @DF-RHF Final Energy:   -76.82271320226216
    Total Energy =                        -76.8227132022621646
  @DF-RHF Final Energy:   -76.82283439036726
    Total Energy =                        -76.8228343903672624
  @DF-RHF Final Energy:   -76.82277875824930
    Total Energy =                        -76.8227787582493136
  @DF-RHF Final Energy:   -76.82277875822879
    Total Energy =                        -76.8227787582287931
  @DF-RHF Final Energy:   -76.82277867458511
    Total Energy =                        -76.8227786745851091
  @DF-RHF Final Energy:   -76.82277867459663
    Total Energy =                        -76.8227786745966341
    Molecular point group: c2v
  Charge       = 0
  Multiplicity = 1
  Basis Set: CC-PVDZ
    Blend: CC-PVDZ
  Basis Set: (CC-PVDZ AUX)
    Blend: CC-PVDZ-JKFIT

    Orbital Energies [Eh]
    ---------------------

    Doubly Occupied:

       1A1   -11.256254     2A1   -11.253095     3A1    -1.019096
       4A1    -0.762408     5A1    -0.670470     1B2    -0.400207
       1B1    -0.400207

  @DF-RHF Final Energy:   -76.82277335364981

   => Energetics <=

    Nuclear Repulsion Energy =             24.3232393838559098
    One-Electron Energy =                -150.7685485623048862
    Two-Electron Energy =                  49.6225358247991792
    Total Energy =                        -76.8227733536498079

  Dipole Moment: [D]
     X:     0.0044      Y:     0.0000      Z:     0.0000     Total:     0.0044

  Basis Set: (CC-PVDZ AUX)
    Blend: CC-PVDZ-RI
    Molecular point group: c2v

    Geometry (in Angstrom), charge = 0, multiplicity = 1:

       Center              X                  Y                   Z               Mass
    ------------   -----------------  -----------------  -----------------  -----------------
         C           -0.614610333491     0.000000000000     0.000000000000    12.000000000000
         C            0.614309666509     0.000000000000     0.000000000000    12.000000000000
         H           -1.687440004874     0.000000000000     0.000000000000     1.007825032230
         H            1.691019995126     0.000000000000     0.000000000000     1.007825032230

  Basis Set: CC-PVDZ
    Blend: CC-PVDZ
  Basis Set: (CC-PVDZ AUX)
    Blend: CC-PVDZ-JKFIT
  Basis Set: (CC-PVDZ AUX)
    Blend: CC-PVDZ-JKFIT
	 Reference Energy          =     -76.8227733536498079 [Eh]
	 Singles Energy            =      -0.0000000000000000 [Eh]
	 Same-Spin Energy          =      -0.0642324058716713 [Eh]
	 Opposite-Spin Energy      =      -0.2002444543859273 [Eh]
	 Correlation Energy        =      -0.2644768602575986 [Eh]
	 Total Energy              =     -77.0872502139074101 [Eh]

	 ================> DF-SCS-MP2 Energies <==================
	-----------------------------------------------------------
	 SCS Same-Spin Scale       =       0.3333333333333333 [-]
	 SCS Opposite-Spin Scale   =       1.2000000000000000 [-]
	 SCS Same-Spin Energy      =      -0.0214108019572238 [Eh]
	 SCS Opposite-Spin Energy  =      -0.2402933452631128 [Eh]
	 SCS Correlation Energy    =      -0.2617041472203366 [Eh]
	 SCS Total Energy          =     -77.0844775008701504 [Eh]
	-----------------------------------------------------------

  -Total Gradient:
     Atom            X                  Y                   Z
    ------   -----------------  -----------------  -----------------
       1       -0.001749259330     0.000000000000     0.000000000000
       2       -0.001340046068     0.000000000000     0.000000000000
       3        0.001583354054     0.000000000000     0.000000000000
       4        0.001505951344     0.000000000000     0.000000000000

  Vibration                       6                   7                   8
  Freq [cm^-1]                 559.6463            559.6463            751.7738
  Irrep                          B2g                 B1g                 B1u
  Reduced mass [u]              1.5641              1.5641              1.0848
  Force const [mDyne/A]         0.2886              0.2886              0.3612

  Vibration                       9                   10                  11
  Freq [cm^-1]                 751.7738           1967.3050           3460.2045
  Irrep                          B2u                  Ag                 B3u
  Reduced mass [u]              1.0848              4.1335              1.0848
  Force const [mDyne/A]         0.3612              9.4258              7.6526

  Vibration                       12
  Freq [cm^-1]                3545.8408
  Irrep                           Ag
  Reduced mass [u]              1.1995
  Force const [mDyne/A]         8.8860

  ==> Thermochemistry Components <==

  Entropy, S
    Electronic S            0.000 [cal/(mol K)]        0.000 [J/(mol K)]       0.00000000 [mEh/K] (multiplicity = 1)
    Translational S        35.704 [cal/(mol K)]      149.387 [J/(mol K)]       0.05689862 [mEh/K] (mol. weight = 26.0157 [u], P = 101325.00 [Pa])
    Rotational S           10.952 [cal/(mol K)]       45.824 [J/(mol K)]       0.01745345 [mEh/K] (symmetry no. = 2)
    Vibrational S           1.551 [cal/(mol K)]        6.491 [J/(mol K)]       0.00247217 [mEh/K]
  Total S                  48.208 [cal/(mol K)]      201.702 [J/(mol K)]       0.07682424 [mEh/K]
  Correction S              0.000 [cal/(mol K)]        0.000 [J/(mol K)]       0.00000000 [mEh/K]

  Constant volume heat capacity, Cv
    Electronic Cv           0.000 [cal/(mol K)]        0.000 [J/(mol K)]       0.00000000 [mEh/K]
    Translational Cv        2.981 [cal/(mol K)]       12.472 [J/(mol K)]       0.00475022 [mEh/K]
    Rotational Cv           1.987 [cal/(mol K)]        8.314 [J/(mol K)]       0.00316681 [mEh/K]
    Vibrational Cv          3.718 [cal/(mol K)]       15.555 [J/(mol K)]       0.00592461 [mEh/K]
  Total Cv                  8.686 [cal/(mol K)]       36.341 [J/(mol K)]       0.01384163 [mEh/K]
  Correction Cv             0.000 [cal/(mol K)]        0.000 [J/(mol K)]       0.00000000 [mEh/K]

  Constant pressure heat capacity, Cp
    Electronic Cp           0.000 [cal/(mol K)]        0.000 [J/(mol K)]       0.00000000 [mEh/K]
    Translational Cp        4.968 [cal/(mol K)]       20.786 [J/(mol K)]       0.00791703 [mEh/K]
    Rotational Cp           1.987 [cal/(mol K)]        8.314 [J/(mol K)]       0.00316681 [mEh/K]
    Vibrational Cp          3.718 [cal/(mol K)]       15.555 [J/(mol K)]       0.00592461 [mEh/K]
  Total Cp                 10.673 [cal/(mol K)]       44.656 [J/(mol K)]       0.01700844 [mEh/K]
  Correction Cp             0.000 [cal/(mol K)]        0.000 [J/(mol K)]       0.00000000 [mEh/K]

  ==> Thermochemistry Energy Analysis <==

  Raw electronic energy, E0
  Total E0, Electronic energy at well bottom at 0 [K]                  -77.08725588 [Eh]

  Zero-point energy, ZPE_vib = Sum_i nu_i / 2
    Electronic ZPE          0.000 [kcal/mol]        0.000 [kJ/mol]       0.00000000 [Eh]
    Translational ZPE       0.000 [kcal/mol]        0.000 [kJ/mol]       0.00000000 [Eh]
    Rotational ZPE          0.000 [kcal/mol]        0.000 [kJ/mol]       0.00000000 [Eh]
    Vibrational ZPE        16.578 [kcal/mol]       69.361 [kJ/mol]       0.02641807 [Eh]        5798.095 [cm^-1]
  Correction ZPE           16.578 [kcal/mol]       69.361 [kJ/mol]       0.02641807 [Eh]        5798.095 [cm^-1]
  Total ZPE, Electronic energy at 0 [K]                                -77.06083781 [Eh]

  Thermal Energy, E (includes ZPE)
    Electronic E            0.000 [kcal/mol]        0.000 [kJ/mol]       0.00000000 [Eh]
    Translational E         0.889 [kcal/mol]        3.718 [kJ/mol]       0.00141628 [Eh]
    Rotational E            0.592 [kcal/mol]        2.479 [kJ/mol]       0.00094418 [Eh]
    Vibrational E          16.926 [kcal/mol]       70.817 [kJ/mol]       0.02697293 [Eh]
  Correction E             18.407 [kcal/mol]       77.015 [kJ/mol]       0.02933339 [Eh]
  Total E, Electronic energy at  298.15 [K]                            -77.05792249 [Eh]

  Enthalpy, H_trans = E_trans + k_B * T
    Electronic H            0.000 [kcal/mol]        0.000 [kJ/mol]       0.00000000 [Eh]
    Translational H         1.481 [kcal/mol]        6.197 [kJ/mol]       0.00236046 [Eh]
    Rotational H            0.592 [kcal/mol]        2.479 [kJ/mol]       0.00094418 [Eh]
    Vibrational H          16.926 [kcal/mol]       70.817 [kJ/mol]       0.02697293 [Eh]
  Correction H             18.999 [kcal/mol]       79.494 [kJ/mol]       0.03027758 [Eh]
  Total H, Enthalpy at  298.15 [K]                                     -77.05697830 [Eh]

  Gibbs free energy, G = H - T * S
    Electronic G            0.000 [kcal/mol]        0.000 [kJ/mol]       0.00000000 [Eh]
    Translational G        -9.164 [kcal/mol]      -38.342 [kJ/mol]      -0.01460386 [Eh]
    Rotational G           -2.673 [kcal/mol]      -11.183 [kJ/mol]      -0.00425956 [Eh]
    Vibrational G          16.463 [kcal/mol]       68.882 [kJ/mol]       0.02623585 [Eh]
  Correction G              4.626 [kcal/mol]       19.356 [kJ/mol]       0.00737243 [Eh]
  Total G, Free enthalpy at  298.15 [K]                                -77.07988345 [Eh]

*** Psi4 exiting successfully. Buy a developer a beer!
