                               Psi4 1.3.2 release

  ==> Input File <==

--------------------------------------------------------------------------
set basis  cc-pVDZ
molecule {
0 1
   C        0.32153        0.81326        0.00000
   C       -0.86505       -0.12817        0.00000
   C        0.54353       -0.68508        0.00000
   H        0.53795        1.36069       -0.92039
   H        0.53795        1.36069        0.92039
   H       -1.44742       -0.21449        0.92034
   H       -1.44742       -0.21449       -0.92034
   H        0.90937       -1.14629       -0.92037
   H        0.90937       -1.14629        0.92037
}
energy('m06-2x')
frequencies('m06-2x')
--------------------------------------------------------------------------

    Molecular point group: cs
  Charge       = 0
  Multiplicity = 1
  Basis Set: CC-PVDZ
    Blend: CC-PVDZ
  Basis Set: (CC-PVDZ AUX)
    Blend: CC-PVDZ-JKFIT
  @DF-RKS Final Energy:  -117.83780255614327
    Total Energy =                       -117.8378025561432736
    Molecular point group: cs
  Basis Set: CC-PVDZ
    Blend: CC-PVDZ
  Basis Set: (CC-PVDZ AUX)
    Blend: CC-PVDZ-JKFIT
  @DF-RKS Final Energy:  -117.83780255714069
    Total Energy =                       -117.8378025571406909
  Basis Set: CC-PVDZ
    Blend: CC-PVDZ
  Basis Set: (CC-PVDZ AUX)
    Blend: CC-PVDZ-JKFIT
  Basis Set: CC-PVDZ
    Blend: CC-PVDZ
  Basis Set: (CC-PVDZ AUX)
    Blend: CC-PVDZ-JKFIT
  @DF-RKS Final Energy:  -117.83780255714041
    Total Energy =                       -117.8378025571404066
  Basis Set: CC-PVDZ
  @DF-RKS Final Energy:  -117.83782601694178
    Total Energy =                       -117.8378260169417757
  @DF-RKS Final Energy:  -117.83781928837872
    Total Energy =                       -117.8378192883787250
  @DF-RKS Final Energy:  -117.83781041490190
    Total Energy =                       -117.8378104149018810
  @DF-RKS Final Energy:  -117.83778528890238
    Total Energy =                       -117.8377852889023671
  @DF-RKS Final Energy:  -117.83779034628058
    Total Energy =                       -117.8377903462805847
  @DF-RKS Final Energy:  -117.83781641696666
    Total Energy =                       -117.8378164169666604
  @DF-RKS Final Energy:  -117.83782066324838
    Total Energy =                       -117.8378206632483796
  @DF-RKS Final Energy:  -117.83782346516945
    Total Energy =                       -117.8378234651694498
  @DF-RKS Final Energy:  -117.83782348090386
    Total Energy =                       -117.8378234809038645
  @DF-RKS Final Energy:  -117.83780377139072
    Total Energy =                       -117.8378037713907247
  @DF-RKS Final Energy:  -117.83780473813175
    Total Energy =                       -117.8378047381317515
  @DF-RKS Final Energy:  -117.83780357604773
    Total Energy =                       -117.8378035760477331
  @DF-RKS Final Energy:  -117.83782520552656
    Total Energy =                       -117.8378252055265563
  @DF-RKS Final Energy:  -117.83781913927751
    Total Energy =                       -117.8378191392775136
  @DF-RKS Final Energy:  -117.83781261742465
    Total Energy =                       -117.8378126174246461
  @DF-RKS Final Energy:  -117.83779359874931
    Total Energy =                       -117.8377935987493004
  @DF-RKS Final Energy:  -117.83778889861411
    Total Energy =                       -117.8377888986140931
  @DF-RKS Final Energy:  -117.83780908384938
    Total Energy =                       -117.8378090838493790
  @DF-RKS Final Energy:  -117.83781891944403
    Total Energy =                       -117.8378189194440324
  @DF-RKS Final Energy:  -117.83783751379306
    Total Energy =                       -117.8378375137930618
  @DF-RKS Final Energy:  -117.83780914248683
    Total Energy =                       -117.8378091424868330
  @DF-RKS Final Energy:  -117.83778883645226
    Total Energy =                       -117.8377888364522761
  @DF-RKS Final Energy:  -117.83778907717387
    Total Energy =                       -117.8377890771738663
  @DF-RKS Final Energy:  -117.83780889523504
    Total Energy =                       -117.8378088952350424
  @DF-RKS Final Energy:  -117.83780071001439
    Total Energy =                       -117.8378007100143918
  @DF-RKS Final Energy:  -117.83780036148445
    Total Energy =                       -117.8378003614844687
  @DF-RKS Final Energy:  -117.83779944316854
    Total Energy =                       -117.8377994431685352
  @DF-RKS Final Energy:  -117.83780222948616
    Total Energy =                       -117.8378022294861580
  @DF-RKS Final Energy:  -117.83779996842128
    Total Energy =                       -117.8377999684212938
  @DF-RKS Final Energy:  -117.83780120657609
    Total Energy =                       -117.8378012065761027
  @DF-RKS Final Energy:  -117.83780020044276
    Total Energy =                       -117.8378002004427572
  Basis Set: (CC-PVDZ AUX)
    Blend: CC-PVDZ-JKFIT
  Basis Set: CC-PVDZ
    Blend: CC-PVDZ
  Basis Set: (CC-PVDZ AUX)
    Blend: CC-PVDZ-JKFIT
  @DF-RKS Final Energy:  -117.83780192144474
    Total Energy =                       -117.8378019214447363
  Basis Set: CC-PVDZ
    Blend: CC-PVDZ
  Basis Set: (CC-PVDZ AUX)
    Blend: CC-PVDZ-JKFIT
    Molecular point group: c1
  Charge       = 0
  Multiplicity = 1
  Basis Set: CC-PVDZ
    Blend: CC-PVDZ
  Basis Set: (CC-PVDZ AUX)
    Blend: CC-PVDZ-JKFIT

    Orbital Energies [Eh]
    ---------------------

    Doubly Occupied:

       1A    -10.547611     2A    -10.547093     3A    -10.547084
       4A     -0.940443     5A     -0.674197     6A     -0.674185
       7A     -0.560567     8A     -0.523595     9A     -0.419878
      10A     -0.419855    11A     -0.345901    12A     -0.345861

  @DF-RKS Final Energy:  -117.83779935188150

   => Energetics <=

    Nuclear Repulsion Energy =             75.2814718714328848
    One-Electron Energy =                -305.8274384610786001
    Two-Electron Energy =                 121.6115490587538943
    DFT Exchange-Correlation Energy =      -8.9033818209896847
    Empirical Dispersion Energy =           0.0000000000000000
    VV10 Nonlocal Energy =                  0.0000000000000000
    Total Energy =                       -117.8377993518815146

  Dipole Moment: [D]
     X:     0.0003      Y:    -0.0003      Z:    -0.0005     Total:     0.0007

    Molecular point group: c1

    Geometry (in Angstrom), charge = 0, multiplicity = 1:

       Center              X                  Y                   Z               Mass
    ------------   -----------------  -----------------  -----------------  -----------------
         C            0.321531939855     0.813261460475     0.000000000000    12.000000000000
         C           -0.865048060145    -0.128168539525     0.000000000000    12.000000000000
         C            0.543531939855    -0.685078539525     0.000000000000    12.000000000000
         H            0.537951939855     1.360691460475    -0.920390000000     1.007825032230
         H            0.537951939855     1.360691460475     0.920390000000     1.007825032230
         H           -1.447418060145    -0.214488539525     0.919737951237     1.007825032230
         H           -1.447418060145    -0.214488539525    -0.920942048763     1.007825032230
         H            0.907830274543    -1.145679013968    -0.919767951237     1.007825032230
         H            0.910913605168    -1.146898065083     0.920972048763     1.007825032230

  Basis Set: CC-PVDZ
    Blend: CC-PVDZ
  Basis Set: (CC-PVDZ AUX)
    Blend: CC-PVDZ-JKFIT

  -Total Gradient:
     Atom            X                  Y                   Z
    ------   -----------------  -----------------  -----------------
       1        0.003037019598     0.007645492710     0.000007634529
       2       -0.008086299131    -0.001152125909     0.000470043364
       3        0.005133151033    -0.006448862457    -0.001303951770
       4        0.000429896648     0.001033049561    -0.001418368312
       5        0.000433617545     0.001046178216     0.001415087973
       6       -0.000927459248    -0.000128911531     0.001135758834
       7       -0.001291683245    -0.000139037780    -0.001717408528
       8        0.000382765412    -0.000532490811    -0.000709138241
       9        0.001112144781    -0.001269851638     0.002119187772

  Vibration                       7                   8                   9
  Freq [cm^-1]                 732.5807            741.2258            852.1833
  Irrep                          App                 App                 App
  Reduced mass [u]              1.0228              1.0242              1.0437
  Force const [mDyne/A]         0.3234              0.3316              0.4466

  Vibration                       10                  11                  12
  Freq [cm^-1]                 889.3188            912.3419           1018.8128
  Irrep                           Ap                  Ap                  Ap
  Reduced mass [u]              2.2502              3.6060              1.5843
  Force const [mDyne/A]         1.0485              1.7684              0.9689

  Vibration                       13                  14                  15
  Freq [cm^-1]                1025.9680           1091.2633           1141.9322
  Irrep                           Ap                  Ap                 App
  Reduced mass [u]              1.4361              1.2844              1.0099
  Force const [mDyne/A]         0.8907              0.9012              0.7759

  Vibration                       16                  17                  18
  Freq [cm^-1]                1192.8542           1195.0606           1213.1533
  Irrep                          App                 App                  Ap
  Reduced mass [u]              1.4395              1.4455              2.3262
  Force const [mDyne/A]         1.2068              1.2163              2.0171

  Vibration                       19                  20                  21
  Freq [cm^-1]                1432.7071           1452.5823           1509.8462
  Irrep                           Ap                  Ap                  Ap
  Reduced mass [u]              1.0997              1.0950              1.4191
  Force const [mDyne/A]         1.3299              1.3613              1.9060

  Vibration                       22                  23                  24
  Freq [cm^-1]                3140.6906           3145.7609           3152.7290
  Irrep                           Ap                  Ap                  Ap
  Reduced mass [u]              1.0503              1.0510              1.0645
  Force const [mDyne/A]         6.1039              6.1278              6.2340

  Vibration                       25                  26                  27
  Freq [cm^-1]                3233.3930           3233.6536           3250.5229
  Irrep                          App                 App                 App
  Reduced mass [u]              1.1213              1.1212              1.1165
  Force const [mDyne/A]         6.9069              6.9073              6.9507

  ==> Thermochemistry Components <==

  Entropy, S
    Electronic S            0.000 [cal/(mol K)]        0.000 [J/(mol K)]       0.00000000 [mEh/K] (multiplicity = 1)
    Translational S        37.135 [cal/(mol K)]      155.375 [J/(mol K)]       0.05917914 [mEh/K] (mol. weight = 42.0470 [u], P = 101325.00 [Pa])
    Rotational S           21.699 [cal/(mol K)]       90.789 [J/(mol K)]       0.03457982 [mEh/K] (symmetry no. = 1)
    Vibrational S           1.431 [cal/(mol K)]        5.989 [J/(mol K)]       0.00228103 [mEh/K]
  Total S                  60.266 [cal/(mol K)]      252.153 [J/(mol K)]       0.09603999 [mEh/K]
  Correction S              0.000 [cal/(mol K)]        0.000 [J/(mol K)]       0.00000000 [mEh/K]

  Constant volume heat capacity, Cv
    Electronic Cv           0.000 [cal/(mol K)]        0.000 [J/(mol K)]       0.00000000 [mEh/K]
    Translational Cv        2.981 [cal/(mol K)]       12.472 [J/(mol K)]       0.00475022 [mEh/K]
    Rotational Cv           2.981 [cal/(mol K)]       12.472 [J/(mol K)]       0.00475022 [mEh/K]
    Vibrational Cv          5.198 [cal/(mol K)]       21.747 [J/(mol K)]       0.00828287 [mEh/K]
  Total Cv                 11.159 [cal/(mol K)]       46.690 [J/(mol K)]       0.01778330 [mEh/K]
  Correction Cv             0.000 [cal/(mol K)]        0.000 [J/(mol K)]       0.00000000 [mEh/K]

  Constant pressure heat capacity, Cp
    Electronic Cp           0.000 [cal/(mol K)]        0.000 [J/(mol K)]       0.00000000 [mEh/K]
    Translational Cp        4.968 [cal/(mol K)]       20.786 [J/(mol K)]       0.00791703 [mEh/K]
    Rotational Cp           2.981 [cal/(mol K)]       12.472 [J/(mol K)]       0.00475022 [mEh/K]
    Vibrational Cp          5.198 [cal/(mol K)]       21.747 [J/(mol K)]       0.00828287 [mEh/K]
  Total Cp                 13.146 [cal/(mol K)]       55.005 [J/(mol K)]       0.02095011 [mEh/K]
  Correction Cp             0.000 [cal/(mol K)]        0.000 [J/(mol K)]       0.00000000 [mEh/K]

  ==> Thermochemistry Energy Analysis <==

  Raw electronic energy, E0
  Total E0, Electronic energy at well bottom at 0 [K]                 -117.83780256 [Eh]

  Zero-point energy, ZPE_vib = Sum_i nu_i / 2
    Electronic ZPE          0.000 [kcal/mol]        0.000 [kJ/mol]       0.00000000 [Eh]
    Translational ZPE       0.000 [kcal/mol]        0.000 [kJ/mol]       0.00000000 [Eh]
    Rotational ZPE          0.000 [kcal/mol]        0.000 [kJ/mol]       0.00000000 [Eh]
    Vibrational ZPE        50.834 [kcal/mol]      212.688 [kJ/mol]       0.08100841 [Eh]       17779.290 [cm^-1]
  Correction ZPE           50.834 [kcal/mol]      212.688 [kJ/mol]       0.08100841 [Eh]       17779.290 [cm^-1]
  Total ZPE, Electronic energy at 0 [K]                               -117.75679415 [Eh]

  Thermal Energy, E (includes ZPE)
    Electronic E            0.000 [kcal/mol]        0.000 [kJ/mol]       0.00000000 [Eh]
    Translational E         0.889 [kcal/mol]        3.718 [kJ/mol]       0.00141628 [Eh]
    Rotational E            0.889 [kcal/mol]        3.718 [kJ/mol]       0.00141628 [Eh]
    Vibrational E          51.180 [kcal/mol]      214.136 [kJ/mol]       0.08156010 [Eh]
  Correction E             52.957 [kcal/mol]      221.573 [kJ/mol]       0.08439265 [Eh]
  Total E, Electronic energy at  298.15 [K]                           -117.75340991 [Eh]

  Enthalpy, H_trans = E_trans + k_B * T
    Electronic H            0.000 [kcal/mol]        0.000 [kJ/mol]       0.00000000 [Eh]
    Translational H         1.481 [kcal/mol]        6.197 [kJ/mol]       0.00236046 [Eh]
    Rotational H            0.889 [kcal/mol]        3.718 [kJ/mol]       0.00141628 [Eh]
    Vibrational H          51.180 [kcal/mol]      214.136 [kJ/mol]       0.08156010 [Eh]
  Correction H             53.550 [kcal/mol]      224.052 [kJ/mol]       0.08533683 [Eh]
  Total H, Enthalpy at  298.15 [K]                                    -117.75246572 [Eh]

  Gibbs free energy, G = H - T * S
    Electronic G            0.000 [kcal/mol]        0.000 [kJ/mol]       0.00000000 [Eh]
    Translational G        -9.591 [kcal/mol]      -40.128 [kJ/mol]      -0.01528380 [Eh]
    Rotational G           -5.581 [kcal/mol]      -23.350 [kJ/mol]      -0.00889370 [Eh]
    Vibrational G          50.753 [kcal/mol]      212.350 [kJ/mol]       0.08088001 [Eh]
  Correction G             35.581 [kcal/mol]      148.872 [kJ/mol]       0.05670251 [Eh]
  Total G, Free enthalpy at  298.15 [K]                               -117.78110005 [Eh]

*** Psi4 exiting successfully. Buy a developer a beer!
