                               Psi4 1.3.2 release

  ==> Input File <==

--------------------------------------------------------------------------
set basis  aug-cc-pVDZ
molecule {
0 1
   C       -0.61446        0.00000        0.00000
   C        0.61446        0.00000        0.00000
   H       -1.68923        0.00000        0.00000
   H        1.68923        0.00000        0.00000
}
energy('CCSD')
frequencies('CCSD')
--------------------------------------------------------------------------

    Molecular point group: d2h
  Charge       = 0
  Multiplicity = 1
  Basis Set: AUG-CC-PVDZ
    Blend: AUG-CC-PVDZ
  @RHF Final Energy:   -76.82562820168212
    Total Energy =                        -76.8256282016821217
      * MP2 total energy                      =  -77.098259353238035
      * CCSD total energy                     =  -77.113360405844432
    Molecular point group: d2h
  Basis Set: AUG-CC-PVDZ
    Blend: AUG-CC-PVDZ
  @RHF Final Energy:   -76.82562820168204
    Total Energy =                        -76.8256282016820364
      * MP2 total energy                      =  -77.098259352978914
      * CCSD total energy                     =  -77.113360407170305
  Basis Set: AUG-CC-PVDZ
    Blend: AUG-CC-PVDZ
  @RHF Final Energy:   -76.82562820168204
    Total Energy =                        -76.8256282016820364
      * MP2 total energy                      =  -77.098259352978914
      * CCSD total energy                     =  -77.113360406596769
  Basis Set: AUG-CC-PVDZ
    Blend: AUG-CC-PVDZ
  @RHF Final Energy:   -76.82548126632932
    Total Energy =                        -76.8254812663293194
      * MP2 total energy                      =  -77.098263666359728
      * CCSD total energy                     =  -77.113330888339746
  @RHF Final Energy:   -76.82576985488615
    Total Energy =                        -76.8257698548861327
      * MP2 total energy                      =  -77.098249959186191
      * CCSD total energy                     =  -77.113384737062660
  @RHF Final Energy:   -76.82555660857177
    Total Energy =                        -76.8255566085717732
      * MP2 total energy                      =  -77.098252532452250
      * CCSD total energy                     =  -77.113363630352126
  @RHF Final Energy:   -76.82568941077700
    Total Energy =                        -76.8256894107770023
      * MP2 total energy                      =  -77.098255871928671
      * CCSD total energy                     =  -77.113346920847277
  @RHF Final Energy:   -76.82562792238586
    Total Energy =                        -76.8256279223858627
      * MP2 total energy                      =  -77.098259269536371
      * CCSD total energy                     =  -77.113360322785439
  Basis Set: AUG-CC-PVDZ
    Blend: AUG-CC-PVDZ
  @RHF Final Energy:   -76.82562792238579
    Total Energy =                        -76.8256279223857916
      * MP2 total energy                      =  -77.098259269536214
      * CCSD total energy                     =  -77.113360322785283
  Basis Set: AUG-CC-PVDZ
    Blend: AUG-CC-PVDZ
  @RHF Final Energy:   -76.82562782773572
    Total Energy =                        -76.8256278277357296
      * MP2 total energy                      =  -77.098259113553453
      * CCSD total energy                     =  -77.113360172012847
  Basis Set: AUG-CC-PVDZ
    Blend: AUG-CC-PVDZ
  @RHF Final Energy:   -76.82562782773593
    Total Energy =                        -76.8256278277359144
      * MP2 total energy                      =  -77.098259113553496
      * CCSD total energy                     =  -77.113360172012889
    Molecular point group: c2v
  Charge       = 0
  Multiplicity = 1
  Basis Set: AUG-CC-PVDZ
    Blend: AUG-CC-PVDZ

    Orbital Energies [Eh]
    ---------------------

    Doubly Occupied:

       1A1   -11.262284     2A1   -11.259093     3A1    -1.025986
       4A1    -0.767641     5A1    -0.676491     1B1    -0.405321
       1B2    -0.405321

  @RHF Final Energy:   -76.82562257145000

   => Energetics <=

    Nuclear Repulsion Energy =             24.3232393838559098
    One-Electron Energy =                -150.6934501763975618
    Two-Electron Energy =                  49.5445882210916508
    Total Energy =                        -76.8256225714499976

  Dipole Moment: [D]
     X:     0.0044      Y:     0.0000      Z:     0.0000     Total:     0.0044

      * MP2 total energy                      =  -77.098253777652729
      * CCSD total energy                     =  -77.113354860222572
    Molecular point group: c2v

    Geometry (in Bohr), charge = 0, multiplicity = 1:

       Center              X                  Y                   Z
    ------------   -----------------  -----------------  -----------------
         C           -1.161445204175     0.000000000000     0.000000000000
         C            1.160877025923     0.000000000000     0.000000000000
         H           -3.188799462353     0.000000000000     0.000000000000
         H            3.195564663461     0.000000000000     0.000000000000

  -Total gradient:
     Atom            X                  Y                   Z
    ------   -----------------  -----------------  -----------------
       1       -0.014713312174     0.000000000000     0.000000000000
       2        0.011688009899     0.000000000000     0.000000000000
       3        0.002704598902     0.000000000000     0.000000000000
       4        0.000320703373     0.000000000000     0.000000000000

  Vibration                       6                   7                   8
  Freq [cm^-1]                 420.9442            420.9442            704.2087
  Irrep                          B1g                 B2g                 B2u
  Reduced mass [u]              1.5641              1.5641              1.0848
  Force const [mDyne/A]         0.1633              0.1633              0.3170

  Vibration                       9                   10                  11
  Freq [cm^-1]                 704.2087           1986.8175           3424.1733
  Irrep                          B1u                  Ag                 B3u
  Reduced mass [u]              1.0848              4.0188              1.0848
  Force const [mDyne/A]         0.3170              9.3467              7.4941

  Vibration                       12
  Freq [cm^-1]                3518.9254
  Irrep                           Ag
  Reduced mass [u]              1.2096
  Force const [mDyne/A]         8.8248

  ==> Thermochemistry Components <==

  Entropy, S
    Electronic S            0.000 [cal/(mol K)]        0.000 [J/(mol K)]       0.00000000 [mEh/K] (multiplicity = 1)
    Translational S        35.704 [cal/(mol K)]      149.387 [J/(mol K)]       0.05689862 [mEh/K] (mol. weight = 26.0157 [u], P = 101325.00 [Pa])
    Rotational S           10.952 [cal/(mol K)]       45.824 [J/(mol K)]       0.01745345 [mEh/K] (symmetry no. = 2)
    Vibrational S           2.381 [cal/(mol K)]        9.963 [J/(mol K)]       0.00379477 [mEh/K]
  Total S                  49.038 [cal/(mol K)]      205.174 [J/(mol K)]       0.07814683 [mEh/K]
  Correction S              0.000 [cal/(mol K)]        0.000 [J/(mol K)]       0.00000000 [mEh/K]

  Constant volume heat capacity, Cv
    Electronic Cv           0.000 [cal/(mol K)]        0.000 [J/(mol K)]       0.00000000 [mEh/K]
    Translational Cv        2.981 [cal/(mol K)]       12.472 [J/(mol K)]       0.00475022 [mEh/K]
    Rotational Cv           1.987 [cal/(mol K)]        8.314 [J/(mol K)]       0.00316681 [mEh/K]
    Vibrational Cv          4.504 [cal/(mol K)]       18.846 [J/(mol K)]       0.00717818 [mEh/K]
  Total Cv                  9.472 [cal/(mol K)]       39.632 [J/(mol K)]       0.01509520 [mEh/K]
  Correction Cv             0.000 [cal/(mol K)]        0.000 [J/(mol K)]       0.00000000 [mEh/K]

  Constant pressure heat capacity, Cp
    Electronic Cp           0.000 [cal/(mol K)]        0.000 [J/(mol K)]       0.00000000 [mEh/K]
    Translational Cp        4.968 [cal/(mol K)]       20.786 [J/(mol K)]       0.00791703 [mEh/K]
    Rotational Cp           1.987 [cal/(mol K)]        8.314 [J/(mol K)]       0.00316681 [mEh/K]
    Vibrational Cp          4.504 [cal/(mol K)]       18.846 [J/(mol K)]       0.00717818 [mEh/K]
  Total Cp                 11.460 [cal/(mol K)]       47.947 [J/(mol K)]       0.01826202 [mEh/K]
  Correction Cp             0.000 [cal/(mol K)]        0.000 [J/(mol K)]       0.00000000 [mEh/K]

  ==> Thermochemistry Energy Analysis <==

  Raw electronic energy, E0
  Total E0, Electronic energy at well bottom at 0 [K]                  -77.11336041 [Eh]

  Zero-point energy, ZPE_vib = Sum_i nu_i / 2
    Electronic ZPE          0.000 [kcal/mol]        0.000 [kJ/mol]       0.00000000 [Eh]
    Translational ZPE       0.000 [kcal/mol]        0.000 [kJ/mol]       0.00000000 [Eh]
    Rotational ZPE          0.000 [kcal/mol]        0.000 [kJ/mol]       0.00000000 [Eh]
    Vibrational ZPE        15.983 [kcal/mol]       66.873 [kJ/mol]       0.02547042 [Eh]        5590.111 [cm^-1]
  Correction ZPE           15.983 [kcal/mol]       66.873 [kJ/mol]       0.02547042 [Eh]        5590.111 [cm^-1]
  Total ZPE, Electronic energy at 0 [K]                                -77.08788999 [Eh]

  Thermal Energy, E (includes ZPE)
    Electronic E            0.000 [kcal/mol]        0.000 [kJ/mol]       0.00000000 [Eh]
    Translational E         0.889 [kcal/mol]        3.718 [kJ/mol]       0.00141628 [Eh]
    Rotational E            0.592 [kcal/mol]        2.479 [kJ/mol]       0.00094418 [Eh]
    Vibrational E          16.486 [kcal/mol]       68.977 [kJ/mol]       0.02627206 [Eh]
  Correction E             17.967 [kcal/mol]       75.175 [kJ/mol]       0.02863252 [Eh]
  Total E, Electronic energy at  298.15 [K]                            -77.08472789 [Eh]

  Enthalpy, H_trans = E_trans + k_B * T
    Electronic H            0.000 [kcal/mol]        0.000 [kJ/mol]       0.00000000 [Eh]
    Translational H         1.481 [kcal/mol]        6.197 [kJ/mol]       0.00236046 [Eh]
    Rotational H            0.592 [kcal/mol]        2.479 [kJ/mol]       0.00094418 [Eh]
    Vibrational H          16.486 [kcal/mol]       68.977 [kJ/mol]       0.02627206 [Eh]
  Correction H             18.560 [kcal/mol]       77.654 [kJ/mol]       0.02957671 [Eh]
  Total H, Enthalpy at  298.15 [K]                                     -77.08378370 [Eh]

  Gibbs free energy, G = H - T * S
    Electronic G            0.000 [kcal/mol]        0.000 [kJ/mol]       0.00000000 [Eh]
    Translational G        -9.164 [kcal/mol]      -38.342 [kJ/mol]      -0.01460386 [Eh]
    Rotational G           -2.673 [kcal/mol]      -11.183 [kJ/mol]      -0.00425956 [Eh]
    Vibrational G          15.776 [kcal/mol]       66.007 [kJ/mol]       0.02514065 [Eh]
  Correction G              3.939 [kcal/mol]       16.481 [kJ/mol]       0.00627723 [Eh]
  Total G, Free enthalpy at  298.15 [K]                                -77.10708318 [Eh]

*** Psi4 exiting successfully. Buy a developer a beer!
