                               Psi4 1.3.2 release

  ==> Input File <==

--------------------------------------------------------------------------
set basis  6-31++G**
molecule {
0 1
   O        0.00000        0.00000       -0.06797
   H        0.74903        0.00000        0.53936
   H       -0.74903        0.00000        0.53936
}
energy('CCSD')
frequencies('CCSD')

--------------------------------------------------------------------------

    Molecular point group: c2v
  Charge       = 0
  Multiplicity = 1
  Basis Set: 6-31++G**
    Blend: 6-31++G**
  @RHF Final Energy:   -76.02985284019746
    Total Energy =                        -76.0298528401974636
      * MP2 total energy                      =  -76.235923604399972
      * CCSD total energy                     =  -76.243473313921754
    Molecular point group: c2v
  Basis Set: 6-31++G**
    Blend: 6-31++G**
  @RHF Final Energy:   -76.02985284019758
    Total Energy =                        -76.0298528401975773
      * MP2 total energy                      =  -76.235923604497785
      * CCSD total energy                     =  -76.243473315361342
  Basis Set: 6-31++G**
    Blend: 6-31++G**
  @RHF Final Energy:   -76.02985284019752
    Total Energy =                        -76.0298528401975204
      * MP2 total energy                      =  -76.235923604497785
      * CCSD total energy                     =  -76.243473314698761
  Basis Set: 6-31++G**
    Blend: 6-31++G**
  @RHF Final Energy:   -76.02970816202200
    Total Energy =                        -76.0297081620220183
      * MP2 total energy                      =  -76.235891645120148
      * CCSD total energy                     =  -76.243434757881630
  Basis Set: 6-31++G**
    Blend: 6-31++G**
  @RHF Final Energy:   -76.02999043114478
    Total Energy =                        -76.0299904311447818
      * MP2 total energy                      =  -76.235948944053078
      * CCSD total energy                     =  -76.243505191762353
  Basis Set: 6-31++G**
    Blend: 6-31++G**
  @RHF Final Energy:   -76.02992881477132
    Total Energy =                        -76.0299288147713241
      * MP2 total energy                      =  -76.235893368631693
      * CCSD total energy                     =  -76.243448750771392
  Basis Set: 6-31++G**
    Blend: 6-31++G**
  @RHF Final Energy:   -76.02976660352363
    Total Energy =                        -76.0297666035236261
      * MP2 total energy                      =  -76.235943801482321
      * CCSD total energy                     =  -76.243487819175868
    Molecular point group: cs
  Charge       = 0
  Multiplicity = 1
  Basis Set: 6-31++G**
    Blend: 6-31++G**

    Orbital Energies [Eh]
    ---------------------

    Doubly Occupied:

       1Ap   -20.584853     2Ap    -1.355046     3Ap    -0.711110
       4Ap    -0.587363     1App   -0.509579

  @RHF Final Energy:   -76.02984544955702

   => Energetics <=

    Nuclear Repulsion Energy =              9.1334682877742281
    One-Electron Energy =                -122.8307243756735119
    Two-Electron Energy =                  37.6674106383422753
    Total Energy =                        -76.0298454495570155

  Dipole Moment: [D]
     X:     0.0032      Y:     0.0000      Z:     2.3369     Total:     2.3370

      * MP2 total energy                      =  -76.235916107865009
      * CCSD total energy                     =  -76.243465900132136
    Molecular point group: cs

    Geometry (in Bohr), charge = 0, multiplicity = 1:

       Center              X                  Y                   Z
    ------------   -----------------  -----------------  -----------------
         O           -0.000332326610     0.000000000000    -0.128443286339
         H            1.418098691984     0.000000000000     1.021382326257
         H           -1.412824427519     0.000000000000     1.017105836614

  -Total gradient:
     Atom            X                  Y                   Z
    ------   -----------------  -----------------  -----------------
       1       -0.003165827864     0.000000000000    -0.009407006726
       2       -0.001198812535     0.000000000000     0.005972895265
       3        0.004364640399     0.000000000000     0.003434111462

  Vibration                       7                   8                   9
  Freq [cm^-1]                1675.2502           3858.3180           3959.0878
  Irrep                           A1                  A1                  B1
  Reduced mass [u]              1.0813              1.0465              1.0793
  Force const [mDyne/A]         1.7879              9.1785              9.9672

  ==> Thermochemistry Components <==

  Entropy, S
    Electronic S            0.000 [cal/(mol K)]        0.000 [J/(mol K)]       0.00000000 [mEh/K] (multiplicity = 1)
    Translational S        34.608 [cal/(mol K)]      144.801 [J/(mol K)]       0.05515177 [mEh/K] (mol. weight = 18.0106 [u], P = 101325.00 [Pa])
    Rotational S           10.508 [cal/(mol K)]       43.968 [J/(mol K)]       0.01674635 [mEh/K] (symmetry no. = 2)
    Vibrational S           0.006 [cal/(mol K)]        0.023 [J/(mol K)]       0.00000887 [mEh/K]
  Total S                  45.122 [cal/(mol K)]      188.792 [J/(mol K)]       0.07190700 [mEh/K]
  Correction S              0.000 [cal/(mol K)]        0.000 [J/(mol K)]       0.00000000 [mEh/K]

  Constant volume heat capacity, Cv
    Electronic Cv           0.000 [cal/(mol K)]        0.000 [J/(mol K)]       0.00000000 [mEh/K]
    Translational Cv        2.981 [cal/(mol K)]       12.472 [J/(mol K)]       0.00475022 [mEh/K]
    Rotational Cv           2.981 [cal/(mol K)]       12.472 [J/(mol K)]       0.00475022 [mEh/K]
    Vibrational Cv          0.040 [cal/(mol K)]        0.168 [J/(mol K)]       0.00006388 [mEh/K]
  Total Cv                  6.002 [cal/(mol K)]       25.111 [J/(mol K)]       0.00956431 [mEh/K]
  Correction Cv             0.000 [cal/(mol K)]        0.000 [J/(mol K)]       0.00000000 [mEh/K]

  Constant pressure heat capacity, Cp
    Electronic Cp           0.000 [cal/(mol K)]        0.000 [J/(mol K)]       0.00000000 [mEh/K]
    Translational Cp        4.968 [cal/(mol K)]       20.786 [J/(mol K)]       0.00791703 [mEh/K]
    Rotational Cp           2.981 [cal/(mol K)]       12.472 [J/(mol K)]       0.00475022 [mEh/K]
    Vibrational Cp          0.040 [cal/(mol K)]        0.168 [J/(mol K)]       0.00006388 [mEh/K]
  Total Cp                  7.989 [cal/(mol K)]       33.426 [J/(mol K)]       0.01273112 [mEh/K]
  Correction Cp             0.000 [cal/(mol K)]        0.000 [J/(mol K)]       0.00000000 [mEh/K]

  ==> Thermochemistry Energy Analysis <==

  Raw electronic energy, E0
  Total E0, Electronic energy at well bottom at 0 [K]                  -76.24347331 [Eh]

  Zero-point energy, ZPE_vib = Sum_i nu_i / 2
    Electronic ZPE          0.000 [kcal/mol]        0.000 [kJ/mol]       0.00000000 [Eh]
    Translational ZPE       0.000 [kcal/mol]        0.000 [kJ/mol]       0.00000000 [Eh]
    Rotational ZPE          0.000 [kcal/mol]        0.000 [kJ/mol]       0.00000000 [Eh]
    Vibrational ZPE        13.570 [kcal/mol]       56.779 [kJ/mol]       0.02162586 [Eh]        4746.328 [cm^-1]
  Correction ZPE           13.570 [kcal/mol]       56.779 [kJ/mol]       0.02162586 [Eh]        4746.328 [cm^-1]
  Total ZPE, Electronic energy at 0 [K]                                -76.22184745 [Eh]

  Thermal Energy, E (includes ZPE)
    Electronic E            0.000 [kcal/mol]        0.000 [kJ/mol]       0.00000000 [Eh]
    Translational E         0.889 [kcal/mol]        3.718 [kJ/mol]       0.00141628 [Eh]
    Rotational E            0.889 [kcal/mol]        3.718 [kJ/mol]       0.00141628 [Eh]
    Vibrational E          13.572 [kcal/mol]       56.785 [kJ/mol]       0.02162822 [Eh]
  Correction E             15.349 [kcal/mol]       64.222 [kJ/mol]       0.02446077 [Eh]
  Total E, Electronic energy at  298.15 [K]                            -76.21901254 [Eh]

  Enthalpy, H_trans = E_trans + k_B * T
    Electronic H            0.000 [kcal/mol]        0.000 [kJ/mol]       0.00000000 [Eh]
    Translational H         1.481 [kcal/mol]        6.197 [kJ/mol]       0.00236046 [Eh]
    Rotational H            0.889 [kcal/mol]        3.718 [kJ/mol]       0.00141628 [Eh]
    Vibrational H          13.572 [kcal/mol]       56.785 [kJ/mol]       0.02162822 [Eh]
  Correction H             15.942 [kcal/mol]       66.701 [kJ/mol]       0.02540495 [Eh]
  Total H, Enthalpy at  298.15 [K]                                     -76.21806836 [Eh]

  Gibbs free energy, G = H - T * S
    Electronic G            0.000 [kcal/mol]        0.000 [kJ/mol]       0.00000000 [Eh]
    Translational G        -8.837 [kcal/mol]      -36.975 [kJ/mol]      -0.01408304 [Eh]
    Rotational G           -2.244 [kcal/mol]       -9.390 [kJ/mol]      -0.00357665 [Eh]
    Vibrational G          13.570 [kcal/mol]       56.778 [kJ/mol]       0.02162557 [Eh]
  Correction G              2.489 [kcal/mol]       10.412 [kJ/mol]       0.00396588 [Eh]
  Total G, Free enthalpy at  298.15 [K]                                -76.23950743 [Eh]

*** Psi4 exiting successfully. Buy a developer a beer!
