                               Psi4 1.3.2 release

  ==> Input File <==

--------------------------------------------------------------------------
set basis  6-31+G*
molecule {
0 1
   C       -1.22151       -0.69325        0.00000
   C       -1.21114        0.71122        0.00000
   C       -0.01037       -1.40452        0.00000
   C        0.01037        1.40452        0.00000
   C        1.21114       -0.71122        0.00000
   C        1.22151        0.69325        0.00000
   H       -2.17311       -1.23332        0.00000
   H       -2.15464        1.26533        0.00000
   H       -0.01848       -2.49865        0.00000
   H        0.01848        2.49865        0.00000
   H        2.15464       -1.26533        0.00000
   H        2.17311        1.23332        0.00000
}
energy('B3LYP')
frequencies('B3LYP')
--------------------------------------------------------------------------

    Molecular point group: c2h
  Charge       = 0
  Multiplicity = 1
  Basis Set: 6-31+G*
    Blend: 6-31+G*
  Basis Set: (6-31+G* AUX)
    Blend: HEAVY-AUG-CC-PVDZ-JKFIT
  @DF-RKS Final Energy:  -232.25850550594240
    Total Energy =                       -232.2585055059424235
    Molecular point group: c2h
  Basis Set: 6-31+G*
    Blend: 6-31+G*
  Basis Set: (6-31+G* AUX)
    Blend: HEAVY-AUG-CC-PVDZ-JKFIT
  @DF-RKS Final Energy:  -232.25850550526036
    Total Energy =                       -232.2585055052603309
  Basis Set: 6-31+G*
    Blend: 6-31+G*
  Basis Set: (6-31+G* AUX)
    Blend: HEAVY-AUG-CC-PVDZ-JKFIT
  Basis Set: 6-31+G*
    Blend: 6-31+G*
  Basis Set: (6-31+G* AUX)
    Blend: HEAVY-AUG-CC-PVDZ-JKFIT
  @DF-RKS Final Energy:  -232.25850550469144
    Total Energy =                       -232.2585055046914420
  Basis Set: 6-31+G*
  @DF-RKS Final Energy:  -232.25851451051386
    Total Energy =                       -232.2585145105138906
  @DF-RKS Final Energy:  -232.25851866029285
    Total Energy =                       -232.2585186602928502
  @DF-RKS Final Energy:  -232.25850515442343
    Total Energy =                       -232.2585051544234602
  @DF-RKS Final Energy:  -232.25851670872370
    Total Energy =                       -232.2585167087236755
  @DF-RKS Final Energy:  -232.25851387708178
    Total Energy =                       -232.2585138770817821
  @DF-RKS Final Energy:  -232.25851730884182
    Total Energy =                       -232.2585173088418173
  @DF-RKS Final Energy:  -232.25850407154667
    Total Energy =                       -232.2585040715466391
  @DF-RKS Final Energy:  -232.25850891128840
    Total Energy =                       -232.2585089112884020
  @DF-RKS Final Energy:  -232.25851263135061
    Total Energy =                       -232.2585126313505839
  @DF-RKS Final Energy:  -232.25851498119786
    Total Energy =                       -232.2585149811978908
  @DF-RKS Final Energy:  -232.25851736623747
    Total Energy =                       -232.2585173662374700
  @DF-RKS Final Energy:  -232.25852211082892
    Total Energy =                       -232.2585221108289488
  @DF-RKS Final Energy:  -232.25848346299210
    Total Energy =                       -232.2584834629921033
  @DF-RKS Final Energy:  -232.25854401095256
    Total Energy =                       -232.2585440109525905
  @DF-RKS Final Energy:  -232.25848904633210
    Total Energy =                       -232.2584890463320733
  @DF-RKS Final Energy:  -232.25852556273554
    Total Energy =                       -232.2585255627355423
  @DF-RKS Final Energy:  -232.25848217502113
    Total Energy =                       -232.2584821750211290
  @DF-RKS Final Energy:  -232.25854945748975
    Total Energy =                       -232.2585494574897211
  @DF-RKS Final Energy:  -232.25850518337478
    Total Energy =                       -232.2585051833747798
  @DF-RKS Final Energy:  -232.25850516508697
    Total Energy =                       -232.2585051650869445
  @DF-RKS Final Energy:  -232.25850513073749
    Total Energy =                       -232.2585051307374897
  @DF-RKS Final Energy:  -232.25850505760124
    Total Energy =                       -232.2585050576012407
  @DF-RKS Final Energy:  -232.25850530889045
    Total Energy =                       -232.2585053088904488
  @DF-RKS Final Energy:  -232.25850531113770
    Total Energy =                       -232.2585053111376681
  @DF-RKS Final Energy:  -232.25850526667847
    Total Energy =                       -232.2585052666784691
  @DF-RKS Final Energy:  -232.25850513983823
    Total Energy =                       -232.2585051398382063
  @DF-RKS Final Energy:  -232.25850514107549
    Total Energy =                       -232.2585051410754886
  @DF-RKS Final Energy:  -232.25850455806125
    Total Energy =                       -232.2585045580612473
  @DF-RKS Final Energy:  -232.25850451043092
    Total Energy =                       -232.2585045104309529
  @DF-RKS Final Energy:  -232.25850436672812
    Total Energy =                       -232.2585043667281184
  @DF-RKS Final Energy:  -232.25850448191412
    Total Energy =                       -232.2585044819141444
  @DF-RKS Final Energy:  -232.25850333931527
    Total Energy =                       -232.2585033393152685
  @DF-RKS Final Energy:  -232.25850269366379
    Total Energy =                       -232.2585026936637860
  @DF-RKS Final Energy:  -232.25850269740008
    Total Energy =                       -232.2585026974000471
  @DF-RKS Final Energy:  -232.25850331381739
    Total Energy =                       -232.2585033138173571
  Basis Set: (6-31+G* AUX)
    Blend: HEAVY-AUG-CC-PVDZ-JKFIT
  Basis Set: 6-31+G*
    Blend: 6-31+G*
  Basis Set: (6-31+G* AUX)
    Blend: HEAVY-AUG-CC-PVDZ-JKFIT
  @DF-RKS Final Energy:  -232.25850361166314
    Total Energy =                       -232.2585036116631159
  Basis Set: 6-31+G*
    Blend: 6-31+G*
  Basis Set: (6-31+G* AUX)
    Blend: HEAVY-AUG-CC-PVDZ-JKFIT
    Molecular point group: cs
  Charge       = 0
  Multiplicity = 1
  Basis Set: 6-31+G*
    Blend: 6-31+G*
  Basis Set: (6-31+G* AUX)
    Blend: HEAVY-AUG-CC-PVDZ-JKFIT

    Orbital Energies [Eh]
    ---------------------

    Doubly Occupied:

       1Ap   -10.201313     2Ap   -10.201053     3Ap   -10.201024
       4Ap   -10.200518     5Ap   -10.200489     6Ap   -10.200230
       7Ap    -0.854019     8Ap    -0.748211     9Ap    -0.748207
      10Ap    -0.605672    11Ap    -0.605662    12Ap    -0.524954
      13Ap    -0.467277    14Ap    -0.447241    15Ap    -0.425596
      16Ap    -0.425591     1App   -0.367634    17Ap    -0.349635
      18Ap    -0.349611     2App   -0.256606     3App   -0.256600

  @DF-RKS Final Energy:  -232.25850239935573

   => Energetics <=

    Nuclear Repulsion Energy =            202.0133184684007119
    One-Electron Energy =                -711.0770531012578886
    Two-Electron Energy =                 304.8780321078288011
    DFT Exchange-Correlation Energy =     -28.0727998743273481
    Empirical Dispersion Energy =           0.0000000000000000
    VV10 Nonlocal Energy =                  0.0000000000000000
    Total Energy =                       -232.2585023993557343

  Dipole Moment: [D]
     X:    -0.0011      Y:    -0.0018      Z:     0.0000     Total:     0.0021

    Molecular point group: cs

    Geometry (in Angstrom), charge = 0, multiplicity = 1:

       Center              X                  Y                   Z               Mass
    ------------   -----------------  -----------------  -----------------  -----------------
         C           -1.221510000000    -0.693250000000     0.000000000000    12.000000000000
         C           -1.211140000000     0.711220000000     0.000000000000    12.000000000000
         C           -0.010370000000    -1.404520000000     0.000000000000    12.000000000000
         C            0.010370000000     1.404520000000     0.000000000000    12.000000000000
         C            1.211140000000    -0.711220000000     0.000000000000    12.000000000000
         C            1.221510000000     0.693250000000     0.000000000000    12.000000000000
         H           -2.173110000000    -1.233320000000     0.000000000000     1.007825032230
         H           -2.154640000000     1.264012202829     0.000000000000     1.007825032230
         H           -0.018480000000    -2.497332202829     0.000000000000     1.007825032230
         H            0.018480000000     2.499967797171     0.000000000000     1.007825032230
         H            2.154640000000    -1.266647797171     0.000000000000     1.007825032230
         H            2.173110000000     1.233320000000     0.000000000000     1.007825032230

  Basis Set: 6-31+G*
    Blend: 6-31+G*
  Basis Set: (6-31+G* AUX)
    Blend: HEAVY-AUG-CC-PVDZ-JKFIT

  -Total Gradient:
     Atom            X                  Y                   Z
    ------   -----------------  -----------------  -----------------
       1       -0.001020518544    -0.000492563348     0.000000000000
       2       -0.001186629815     0.000789413964     0.000000000000
       3        0.000033410286    -0.001946532132     0.000000000000
       4        0.000037460316     0.000305329657     0.000000000000
       5        0.000648224459    -0.000198866308     0.000000000000
       6        0.000862159528     0.000496090859     0.000000000000
       7       -0.004108250110    -0.002338074504     0.000000000000
       8       -0.003769480193     0.002069977487     0.000000000000
       9       -0.000037920101    -0.003860276832     0.000000000000
      10        0.000038707621     0.005576394380     0.000000000000
      11        0.004385838156    -0.002732925883     0.000000000000
      12        0.004117190886     0.002331942073     0.000000000000

  Vibration                       7                   8                   9
  Freq [cm^-1]                 426.1051            426.3302            616.0066
  Irrep                           Au                  Au                  Ag
  Reduced mass [u]              2.9846              2.9841              6.3148
  Force const [mDyne/A]         0.3193              0.3196              1.4118

  Vibration                       10                  11                  12
  Freq [cm^-1]                 626.6815            715.0121            727.4156
  Irrep                           Ag                  Bg                  Au
  Reduced mass [u]              6.1165              3.8608              1.0848
  Force const [mDyne/A]         1.4153              1.1629              0.3382

  Vibration                       13                  14                  15
  Freq [cm^-1]                 889.2033            889.3035            997.8228
  Irrep                           Bg                  Bg                  Ag
  Reduced mass [u]              1.2479              1.2479              6.0418
  Force const [mDyne/A]         0.5813              0.5815              3.5443

  Vibration                       16                  17                  18
  Freq [cm^-1]                1000.0631           1000.1517           1016.4865
  Irrep                           Au                  Au                  Bu
  Reduced mass [u]              1.3505              1.3504              6.5392
  Force const [mDyne/A]         0.7958              0.7959              3.9809

  Vibration                       19                  20                  21
  Freq [cm^-1]                1031.9845           1060.3098           1060.7422
  Irrep                           Bg                  Bu                  Bu
  Reduced mass [u]              1.2247              1.7972              1.7951
  Force const [mDyne/A]         0.7684              1.1905              1.1900

  Vibration                       22                  23                  24
  Freq [cm^-1]                1187.4755           1207.2486           1211.7297
  Irrep                           Bu                  Ag                  Ag
  Reduced mass [u]              1.1699              1.1642              1.1545
  Force const [mDyne/A]         0.9719              0.9997              0.9988

  Vibration                       25                  26                  27
  Freq [cm^-1]                1330.4891           1393.2273           1519.7761
  Irrep                           Bu                  Ag                  Bu
  Reduced mass [u]              4.5297              1.2479              1.8968
  Force const [mDyne/A]         4.7243              1.4271              2.5813

  Vibration                       28                  29                  30
  Freq [cm^-1]                1520.0641           1622.9570           1633.4163
  Irrep                           Bu                  Ag                  Ag
  Reduced mass [u]              1.8973              4.6914              4.9176
  Force const [mDyne/A]         2.5829              7.2806              7.7303

  Vibration                       31                  32                  33
  Freq [cm^-1]                3109.9647           3119.5109           3119.7832
  Irrep                           Bu                  Ag                  Ag
  Reduced mass [u]              1.0838              1.0876              1.0878
  Force const [mDyne/A]         6.1763              6.2356              6.2379

  Vibration                       34                  35                  36
  Freq [cm^-1]                3135.6375           3135.7187           3144.8979
  Irrep                           Bu                  Bu                  Ag
  Reduced mass [u]              1.0947              1.0946              1.0988
  Force const [mDyne/A]         6.3418              6.3415              6.4032

  ==> Thermochemistry Components <==

  Entropy, S
    Electronic S            0.000 [cal/(mol K)]        0.000 [J/(mol K)]       0.00000000 [mEh/K] (multiplicity = 1)
    Translational S        38.979 [cal/(mol K)]      163.089 [J/(mol K)]       0.06211726 [mEh/K] (mol. weight = 78.0470 [u], P = 101325.00 [Pa])
    Rotational S           24.318 [cal/(mol K)]      101.746 [J/(mol K)]       0.03875307 [mEh/K] (symmetry no. = 2)
    Vibrational S           4.225 [cal/(mol K)]       17.677 [J/(mol K)]       0.00673299 [mEh/K]
  Total S                  67.522 [cal/(mol K)]      282.512 [J/(mol K)]       0.10760333 [mEh/K]
  Correction S              0.000 [cal/(mol K)]        0.000 [J/(mol K)]       0.00000000 [mEh/K]

  Constant volume heat capacity, Cv
    Electronic Cv           0.000 [cal/(mol K)]        0.000 [J/(mol K)]       0.00000000 [mEh/K]
    Translational Cv        2.981 [cal/(mol K)]       12.472 [J/(mol K)]       0.00475022 [mEh/K]
    Rotational Cv           2.981 [cal/(mol K)]       12.472 [J/(mol K)]       0.00475022 [mEh/K]
    Vibrational Cv         10.964 [cal/(mol K)]       45.875 [J/(mol K)]       0.01747289 [mEh/K]
  Total Cv                 16.926 [cal/(mol K)]       70.818 [J/(mol K)]       0.02697332 [mEh/K]
  Correction Cv             0.000 [cal/(mol K)]        0.000 [J/(mol K)]       0.00000000 [mEh/K]

  Constant pressure heat capacity, Cp
    Electronic Cp           0.000 [cal/(mol K)]        0.000 [J/(mol K)]       0.00000000 [mEh/K]
    Translational Cp        4.968 [cal/(mol K)]       20.786 [J/(mol K)]       0.00791703 [mEh/K]
    Rotational Cp           2.981 [cal/(mol K)]       12.472 [J/(mol K)]       0.00475022 [mEh/K]
    Vibrational Cp         10.964 [cal/(mol K)]       45.875 [J/(mol K)]       0.01747289 [mEh/K]
  Total Cp                 18.913 [cal/(mol K)]       79.133 [J/(mol K)]       0.03014013 [mEh/K]
  Correction Cp             0.000 [cal/(mol K)]        0.000 [J/(mol K)]       0.00000000 [mEh/K]

  ==> Thermochemistry Energy Analysis <==

  Raw electronic energy, E0
  Total E0, Electronic energy at well bottom at 0 [K]                 -232.25850550 [Eh]

  Zero-point energy, ZPE_vib = Sum_i nu_i / 2
    Electronic ZPE          0.000 [kcal/mol]        0.000 [kJ/mol]       0.00000000 [Eh]
    Translational ZPE       0.000 [kcal/mol]        0.000 [kJ/mol]       0.00000000 [Eh]
    Rotational ZPE          0.000 [kcal/mol]        0.000 [kJ/mol]       0.00000000 [Eh]
    Vibrational ZPE        62.723 [kcal/mol]      262.434 [kJ/mol]       0.09995578 [Eh]       21937.757 [cm^-1]
  Correction ZPE           62.723 [kcal/mol]      262.434 [kJ/mol]       0.09995578 [Eh]       21937.757 [cm^-1]
  Total ZPE, Electronic energy at 0 [K]                               -232.15854973 [Eh]

  Thermal Energy, E (includes ZPE)
    Electronic E            0.000 [kcal/mol]        0.000 [kJ/mol]       0.00000000 [Eh]
    Translational E         0.889 [kcal/mol]        3.718 [kJ/mol]       0.00141628 [Eh]
    Rotational E            0.889 [kcal/mol]        3.718 [kJ/mol]       0.00141628 [Eh]
    Vibrational E          63.668 [kcal/mol]      266.389 [kJ/mol]       0.10146213 [Eh]
  Correction E             65.446 [kcal/mol]      273.826 [kJ/mol]       0.10429468 [Eh]
  Total E, Electronic energy at  298.15 [K]                           -232.15421082 [Eh]

  Enthalpy, H_trans = E_trans + k_B * T
    Electronic H            0.000 [kcal/mol]        0.000 [kJ/mol]       0.00000000 [Eh]
    Translational H         1.481 [kcal/mol]        6.197 [kJ/mol]       0.00236046 [Eh]
    Rotational H            0.889 [kcal/mol]        3.718 [kJ/mol]       0.00141628 [Eh]
    Vibrational H          63.668 [kcal/mol]      266.389 [kJ/mol]       0.10146213 [Eh]
  Correction H             66.038 [kcal/mol]      276.305 [kJ/mol]       0.10523887 [Eh]
  Total H, Enthalpy at  298.15 [K]                                    -232.15326664 [Eh]

  Gibbs free energy, G = H - T * S
    Electronic G            0.000 [kcal/mol]        0.000 [kJ/mol]       0.00000000 [Eh]
    Translational G       -10.140 [kcal/mol]      -42.428 [kJ/mol]      -0.01615980 [Eh]
    Rotational G           -6.362 [kcal/mol]      -26.617 [kJ/mol]      -0.01013795 [Eh]
    Vibrational G          62.409 [kcal/mol]      261.118 [kJ/mol]       0.09945469 [Eh]
  Correction G             45.907 [kcal/mol]      192.074 [kJ/mol]       0.07315694 [Eh]
  Total G, Free enthalpy at  298.15 [K]                               -232.18534857 [Eh]

*** Psi4 exiting successfully. Buy a developer a beer!
