                               Psi4 1.3.2 release

  ==> Input File <==

--------------------------------------------------------------------------
set basis  6-311++G**
molecule {
0 1
   C       -1.22151       -0.69325        0.00000
   C       -1.21114        0.71122        0.00000
   C       -0.01037       -1.40452        0.00000
   C        0.01037        1.40452        0.00000
   C        1.21114       -0.71122        0.00000
   C        1.22151        0.69325        0.00000
   H       -2.17311       -1.23332        0.00000
   H       -2.15464        1.26533        0.00000
   H       -0.01848       -2.49865        0.00000
   H        0.01848        2.49865        0.00000
   H        2.15464       -1.26533        0.00000
   H        2.17311        1.23332        0.00000
}
energy('MP2')
frequencies('MP2')
--------------------------------------------------------------------------

    Molecular point group: c2h
  Charge       = 0
  Multiplicity = 1
  Basis Set: 6-311++G**
    Blend: 6-311++G**
  Basis Set: (6-311++G** AUX)
    Blend: AUG-CC-PVTZ-JKFIT
  @DF-RHF Final Energy:  -230.75334300765138
    Total Energy =                       -230.7533430076513810
  Basis Set: (6-311++G** AUX)
    Blend: AUG-CC-PVTZ-RI
	 Reference Energy          =    -230.7533430076513810 [Eh]
	 Singles Energy            =      -0.0000000000000000 [Eh]
	 Same-Spin Energy          =      -0.2277632969984762 [Eh]
	 Opposite-Spin Energy      =      -0.7160672091792882 [Eh]
	 Correlation Energy        =      -0.9438305061777644 [Eh]
	 Total Energy              =    -231.6971735138291422 [Eh]
	 SCS Total Energy          =    -231.6885447576660226 [Eh]
    Molecular point group: c2h
  Basis Set: 6-311++G**
    Blend: 6-311++G**
  Basis Set: (6-311++G** AUX)
    Blend: AUG-CC-PVTZ-JKFIT
  @DF-RHF Final Energy:  -230.75334300247482
    Total Energy =                       -230.7533430024748213
  Basis Set: (6-311++G** AUX)
  @DF-RHF Final Energy:  -230.75334300829263
    Total Energy =                       -230.7533430082926316
  @DF-RHF Final Energy:  -230.75333184032050
    Total Energy =                       -230.7533318403205271
  @DF-RHF Final Energy:  -230.75335246611513
    Total Energy =                       -230.7533524661151318
  @DF-RHF Final Energy:  -230.75333702496346
    Total Energy =                       -230.7533370249634572
  @DF-RHF Final Energy:  -230.75334690899518
    Total Energy =                       -230.7533469089951836
  @DF-RHF Final Energy:  -230.75333170141980
    Total Energy =                       -230.7533317014198246
  @DF-RHF Final Energy:  -230.75335244910343
    Total Energy =                       -230.7533524491034314
  @DF-RHF Final Energy:  -230.75334685193954
    Total Energy =                       -230.7533468519395115
  @DF-RHF Final Energy:  -230.75333724657389
    Total Energy =                       -230.7533372465738921
  @DF-RHF Final Energy:  -230.75334184203140
    Total Energy =                       -230.7533418420314320
  @DF-RHF Final Energy:  -230.75334201658211
    Total Energy =                       -230.7533420165821099
  @DF-RHF Final Energy:  -230.75333067039671
    Total Energy =                       -230.7533306703967355
  @DF-RHF Final Energy:  -230.75335374148435
    Total Energy =                       -230.7533537414843750
  @DF-RHF Final Energy:  -230.75325352127095
    Total Energy =                       -230.7532535212709490
  @DF-RHF Final Energy:  -230.75342498135777
    Total Energy =                       -230.7534249813577389
  @DF-RHF Final Energy:  -230.75330174904929
    Total Energy =                       -230.7533017490492853
  @DF-RHF Final Energy:  -230.75338128214742
    Total Energy =                       -230.7533812821474157
  @DF-RHF Final Energy:  -230.75325186277706
    Total Energy =                       -230.7532518627770628
  @DF-RHF Final Energy:  -230.75343307689906
    Total Energy =                       -230.7534330768990571
  @DF-RHF Final Energy:  -230.75334261019188
    Total Energy =                       -230.7533426101919076
  @DF-RHF Final Energy:  -230.75334255109971
    Total Energy =                       -230.7533425510997063
  @DF-RHF Final Energy:  -230.75334253804385
    Total Energy =                       -230.7533425380438530
  @DF-RHF Final Energy:  -230.75334244546437
    Total Energy =                       -230.7533424454643409
  @DF-RHF Final Energy:  -230.75334275678100
    Total Energy =                       -230.7533427567809667
  @DF-RHF Final Energy:  -230.75334275313594
    Total Energy =                       -230.7533427531359393
  @DF-RHF Final Energy:  -230.75334268194263
    Total Energy =                       -230.7533426819426268
  @DF-RHF Final Energy:  -230.75334252745813
    Total Energy =                       -230.7533425274581305
  @DF-RHF Final Energy:  -230.75334252676538
    Total Energy =                       -230.7533425267653797
  @DF-RHF Final Energy:  -230.75334193826149
    Total Energy =                       -230.7533419382614852
  @DF-RHF Final Energy:  -230.75334211521758
    Total Energy =                       -230.7533421152175492
  @DF-RHF Final Energy:  -230.75334180652567
    Total Energy =                       -230.7533418065256683
  @DF-RHF Final Energy:  -230.75334202871241
    Total Energy =                       -230.7533420287123818
  @DF-RHF Final Energy:  -230.75334060538796
    Total Energy =                       -230.7533406053879617
  @DF-RHF Final Energy:  -230.75334021385865
    Total Energy =                       -230.7533402138586780
  @DF-RHF Final Energy:  -230.75333993099926
    Total Energy =                       -230.7533399309992888
  @DF-RHF Final Energy:  -230.75334084629111
    Total Energy =                       -230.7533408462911098
  @DF-RHF Final Energy:  -230.75334084268340
    Total Energy =                       -230.7533408426833716
    Molecular point group: cs
  Charge       = 0
  Multiplicity = 1
  Basis Set: 6-311++G**
    Blend: 6-311++G**
  Basis Set: (6-311++G** AUX)
    Blend: AUG-CC-PVTZ-JKFIT

    Orbital Energies [Eh]
    ---------------------

    Doubly Occupied:

       1Ap   -11.243816     2Ap   -11.243270     3Ap   -11.243251
       4Ap   -11.242093     5Ap   -11.242076     6Ap   -11.241497
       7Ap    -1.146346     8Ap    -1.012732     9Ap    -1.012725
      10Ap    -0.822361    11Ap    -0.822348    12Ap    -0.705428
      13Ap    -0.643444    14Ap    -0.617351    15Ap    -0.586823
      16Ap    -0.586820     1App   -0.498331    17Ap    -0.495168
      18Ap    -0.495139     2App   -0.335702     3App   -0.335691

  @DF-RHF Final Energy:  -230.75333993753728

   => Energetics <=

    Nuclear Repulsion Energy =            202.0133184684007119
    One-Electron Energy =                -710.3884899312288326
    Two-Electron Energy =                 277.6218315252908724
    Total Energy =                       -230.7533399375372483

  Dipole Moment: [D]
     X:    -0.0011      Y:    -0.0018      Z:     0.0000     Total:     0.0021

  Basis Set: (6-311++G** AUX)
    Blend: AUG-CC-PVTZ-RI
    Molecular point group: cs

    Geometry (in Angstrom), charge = 0, multiplicity = 1:

       Center              X                  Y                   Z               Mass
    ------------   -----------------  -----------------  -----------------  -----------------
         C           -1.221510000000    -0.693250000000     0.000000000000    12.000000000000
         C           -1.211140000000     0.711220000000     0.000000000000    12.000000000000
         C           -0.010370000000    -1.404520000000     0.000000000000    12.000000000000
         C            0.010370000000     1.404520000000     0.000000000000    12.000000000000
         C            1.211140000000    -0.711220000000     0.000000000000    12.000000000000
         C            1.221510000000     0.693250000000     0.000000000000    12.000000000000
         H           -2.173110000000    -1.233320000000     0.000000000000     1.007825032230
         H           -2.154640000000     1.264012202829     0.000000000000     1.007825032230
         H           -0.018480000000    -2.497332202829     0.000000000000     1.007825032230
         H            0.018480000000     2.499967797171     0.000000000000     1.007825032230
         H            2.154640000000    -1.266647797171     0.000000000000     1.007825032230
         H            2.173110000000     1.233320000000     0.000000000000     1.007825032230

  Basis Set: 6-311++G**
    Blend: 6-311++G**
  Basis Set: (6-311++G** AUX)
    Blend: AUG-CC-PVTZ-JKFIT
  Basis Set: (6-311++G** AUX)
    Blend: AUG-CC-PVTZ-JKFIT
	 Reference Energy          =    -230.7533399375372767 [Eh]
	 Singles Energy            =      -0.0000000000000000 [Eh]
	 Same-Spin Energy          =      -0.2277633243796016 [Eh]
	 Opposite-Spin Energy      =      -0.7160672781406666 [Eh]
	 Correlation Energy        =      -0.9438306025202683 [Eh]
	 Total Energy              =    -231.6971705400575559 [Eh]

	 ================> DF-SCS-MP2 Energies <==================
	-----------------------------------------------------------
	 SCS Same-Spin Scale       =       0.3333333333333333 [-]
	 SCS Opposite-Spin Scale   =       1.2000000000000000 [-]
	 SCS Same-Spin Energy      =      -0.0759211081265339 [Eh]
	 SCS Opposite-Spin Energy  =      -0.8592807337687999 [Eh]
	 SCS Correlation Energy    =      -0.9352018418953337 [Eh]
	 SCS Total Energy          =    -231.6885417794325974 [Eh]
	-----------------------------------------------------------

  -Total Gradient:
     Atom            X                  Y                   Z
    ------   -----------------  -----------------  -----------------
       1       -0.000103256446     0.000020646046     0.000000000000
       2       -0.000293695721     0.000271087853     0.000000000000
       3        0.000043558636    -0.000886668336     0.000000000000
       4        0.000028300064    -0.000778129377     0.000000000000
       5       -0.000250444414     0.000326445721     0.000000000000
       6       -0.000061719201    -0.000019902219     0.000000000000
       7       -0.004706251888    -0.002677111632     0.000000000000
       8       -0.004357756743     0.002418718666     0.000000000000
       9       -0.000042464169    -0.004538863727     0.000000000000
      10        0.000043256377     0.006273963192     0.000000000000
      11        0.004984238390    -0.003081806922     0.000000000000
      12        0.004716235115     0.002671620740     0.000000000000

  Vibration                       1                   8                   9
  Freq [cm^-1]                1162.1808i           345.7752            345.8729
  Irrep                           Bg                  Au                  Au
  Reduced mass [u]              7.2891              4.6441              4.6436
  Force const [mDyne/A]        -5.8006              0.3271              0.3273

  Vibration                       10                  11                  12
  Freq [cm^-1]                 612.1873            612.2296            709.2947
  Irrep                           Ag                  Ag                  Au
  Reduced mass [u]              6.1608              6.1611              1.0848
  Force const [mDyne/A]         1.3604              1.3606              0.3216

  Vibration                       13                  14                  15
  Freq [cm^-1]                 839.8931            839.9417            841.3858
  Irrep                           Bg                  Bg                  Au
  Reduced mass [u]              1.2479              1.2479              1.1625
  Force const [mDyne/A]         0.5186              0.5187              0.4849

  Vibration                       16                  17                  18
  Freq [cm^-1]                 841.4526            860.6011            996.5144
  Irrep                           Au                  Bg                  Ag
  Reduced mass [u]              1.1625              1.0657              5.9695
  Force const [mDyne/A]         0.4849              0.4650              3.4927

  Vibration                       19                  20                  21
  Freq [cm^-1]                1004.0006           1059.0861           1060.4026
  Irrep                           Bu                  Bu                  Bu
  Reduced mass [u]              6.5595              1.7734              1.7705
  Force const [mDyne/A]         3.8957              1.1720              1.1730

  Vibration                       22                  23                  24
  Freq [cm^-1]                1185.2489           1204.7258           1204.8386
  Irrep                           Bu                  Ag                  Ag
  Reduced mass [u]              1.0505              1.1435              1.1434
  Force const [mDyne/A]         0.8695              0.9778              0.9780

  Vibration                       25                  26                  27
  Freq [cm^-1]                1378.4922           1429.5473           1505.3339
  Irrep                           Ag                  Bu                  Bu
  Reduced mass [u]              1.2479              8.0884              1.9170
  Force const [mDyne/A]         1.3971              9.7389              2.5595

  Vibration                       28                  29                  30
  Freq [cm^-1]                1505.5839           1624.1794           1624.3348
  Irrep                           Bu                  Ag                  Ag
  Reduced mass [u]              1.9208              5.1165              5.1174
  Force const [mDyne/A]         2.5654              7.9523              7.9552

  Vibration                       31                  32                  33
  Freq [cm^-1]                3125.6129           3139.5607           3139.7272
  Irrep                           Bu                  Ag                  Ag
  Reduced mass [u]              1.0833              1.0883              1.0883
  Force const [mDyne/A]         6.2353              6.3205              6.3211

  Vibration                       34                  35                  36
  Freq [cm^-1]                3156.7864           3156.9518           3168.8077
  Irrep                           Bu                  Bu                  Ag
  Reduced mass [u]              1.0967              1.0965              1.1012
  Force const [mDyne/A]         6.4390              6.4387              6.5150

  ==> Thermochemistry Components <==

  Entropy, S
    Electronic S            0.000 [cal/(mol K)]        0.000 [J/(mol K)]       0.00000000 [mEh/K] (multiplicity = 1)
    Translational S        38.979 [cal/(mol K)]      163.089 [J/(mol K)]       0.06211726 [mEh/K] (mol. weight = 78.0470 [u], P = 101325.00 [Pa])
    Rotational S           24.318 [cal/(mol K)]      101.746 [J/(mol K)]       0.03875307 [mEh/K] (symmetry no. = 2)
    Vibrational S           4.925 [cal/(mol K)]       20.606 [J/(mol K)]       0.00784840 [mEh/K]
  Total S                  68.222 [cal/(mol K)]      285.441 [J/(mol K)]       0.10871873 [mEh/K]
  Correction S              0.000 [cal/(mol K)]        0.000 [J/(mol K)]       0.00000000 [mEh/K]

  Constant volume heat capacity, Cv
    Electronic Cv           0.000 [cal/(mol K)]        0.000 [J/(mol K)]       0.00000000 [mEh/K]
    Translational Cv        2.981 [cal/(mol K)]       12.472 [J/(mol K)]       0.00475022 [mEh/K]
    Rotational Cv           2.981 [cal/(mol K)]       12.472 [J/(mol K)]       0.00475022 [mEh/K]
    Vibrational Cv         11.349 [cal/(mol K)]       47.486 [J/(mol K)]       0.01808640 [mEh/K]
  Total Cv                 17.311 [cal/(mol K)]       72.429 [J/(mol K)]       0.02758683 [mEh/K]
  Correction Cv             0.000 [cal/(mol K)]        0.000 [J/(mol K)]       0.00000000 [mEh/K]

  Constant pressure heat capacity, Cp
    Electronic Cp           0.000 [cal/(mol K)]        0.000 [J/(mol K)]       0.00000000 [mEh/K]
    Translational Cp        4.968 [cal/(mol K)]       20.786 [J/(mol K)]       0.00791703 [mEh/K]
    Rotational Cp           2.981 [cal/(mol K)]       12.472 [J/(mol K)]       0.00475022 [mEh/K]
    Vibrational Cp         11.349 [cal/(mol K)]       47.486 [J/(mol K)]       0.01808640 [mEh/K]
  Total Cp                 19.298 [cal/(mol K)]       80.744 [J/(mol K)]       0.03075364 [mEh/K]
  Correction Cp             0.000 [cal/(mol K)]        0.000 [J/(mol K)]       0.00000000 [mEh/K]

  ==> Thermochemistry Energy Analysis <==

  Raw electronic energy, E0
  Total E0, Electronic energy at well bottom at 0 [K]                 -231.69717352 [Eh]

  Zero-point energy, ZPE_vib = Sum_i nu_i / 2
    Electronic ZPE          0.000 [kcal/mol]        0.000 [kJ/mol]       0.00000000 [Eh]
    Translational ZPE       0.000 [kcal/mol]        0.000 [kJ/mol]       0.00000000 [Eh]
    Rotational ZPE          0.000 [kcal/mol]        0.000 [kJ/mol]       0.00000000 [Eh]
    Vibrational ZPE        60.783 [kcal/mol]      254.316 [kJ/mol]       0.09686397 [Eh]       21259.184 [cm^-1]
  Correction ZPE           60.783 [kcal/mol]      254.316 [kJ/mol]       0.09686397 [Eh]       21259.184 [cm^-1]
  Total ZPE, Electronic energy at 0 [K]                               -231.60030955 [Eh]

  Thermal Energy, E (includes ZPE)
    Electronic E            0.000 [kcal/mol]        0.000 [kJ/mol]       0.00000000 [Eh]
    Translational E         0.889 [kcal/mol]        3.718 [kJ/mol]       0.00141628 [Eh]
    Rotational E            0.889 [kcal/mol]        3.718 [kJ/mol]       0.00141628 [Eh]
    Vibrational E          61.845 [kcal/mol]      258.761 [kJ/mol]       0.09855679 [Eh]
  Correction E             63.623 [kcal/mol]      266.198 [kJ/mol]       0.10138934 [Eh]
  Total E, Electronic energy at  298.15 [K]                           -231.59578418 [Eh]

  Enthalpy, H_trans = E_trans + k_B * T
    Electronic H            0.000 [kcal/mol]        0.000 [kJ/mol]       0.00000000 [Eh]
    Translational H         1.481 [kcal/mol]        6.197 [kJ/mol]       0.00236046 [Eh]
    Rotational H            0.889 [kcal/mol]        3.718 [kJ/mol]       0.00141628 [Eh]
    Vibrational H          61.845 [kcal/mol]      258.761 [kJ/mol]       0.09855679 [Eh]
  Correction H             64.215 [kcal/mol]      268.677 [kJ/mol]       0.10233353 [Eh]
  Total H, Enthalpy at  298.15 [K]                                    -231.59484000 [Eh]

  Gibbs free energy, G = H - T * S
    Electronic G            0.000 [kcal/mol]        0.000 [kJ/mol]       0.00000000 [Eh]
    Translational G       -10.140 [kcal/mol]      -42.428 [kJ/mol]      -0.01615980 [Eh]
    Rotational G           -6.362 [kcal/mol]      -26.617 [kJ/mol]      -0.01013795 [Eh]
    Vibrational G          60.377 [kcal/mol]      252.617 [kJ/mol]       0.09621679 [Eh]
  Correction G             43.875 [kcal/mol]      183.572 [kJ/mol]       0.06991904 [Eh]
  Total G, Free enthalpy at  298.15 [K]                               -231.62725448 [Eh]

*** Psi4 exiting successfully. Buy a developer a beer!
