                               Psi4 1.3.2 release

  ==> Input File <==

--------------------------------------------------------------------------
set basis  6-31++g**
molecule {
0 1
   C       -0.61446        0.00000        0.00000
   C        0.61446        0.00000        0.00000
   H       -1.68923        0.00000        0.00000
   H        1.68923        0.00000        0.00000
}
energy('CCSD')
frequencies('CCSD')
--------------------------------------------------------------------------

    Molecular point group: d2h
  Charge       = 0
  Multiplicity = 1
  Basis Set: 6-31++G**
    Blend: 6-31++G**
  @RHF Final Energy:   -76.82339501304087
    Total Energy =                        -76.8233950130408658
      * MP2 total energy                      =  -77.097854667666240
      * CCSD total energy                     =  -77.112543810101968
    Molecular point group: d2h
  Basis Set: 6-31++G**
    Blend: 6-31++G**
  @RHF Final Energy:   -76.82339501304101
    Total Energy =                        -76.8233950130410079
      * MP2 total energy                      =  -77.097854667534207
      * CCSD total energy                     =  -77.112543811257922
  Basis Set: 6-31++G**
    Blend: 6-31++G**
  @RHF Final Energy:   -76.82339501304101
    Total Energy =                        -76.8233950130410079
      * MP2 total energy                      =  -77.097854667534207
      * CCSD total energy                     =  -77.112543809997973
  Basis Set: 6-31++G**
    Blend: 6-31++G**
  @RHF Final Energy:   -76.82324263695951
    Total Energy =                        -76.8232426369595203
      * MP2 total energy                      =  -77.097835644633307
      * CCSD total energy                     =  -77.112495192684634
  @RHF Final Energy:   -76.82354219517454
    Total Energy =                        -76.8235421951745536
      * MP2 total energy                      =  -77.097868785703469
      * CCSD total energy                     =  -77.112587414393801
  @RHF Final Energy:   -76.82329227184101
    Total Energy =                        -76.8232922718410123
      * MP2 total energy                      =  -77.097784734067673
      * CCSD total energy                     =  -77.112478870283226
  @RHF Final Energy:   -76.82348756491199
    Total Energy =                        -76.8234875649119857
      * MP2 total energy                      =  -77.097914638011886
      * CCSD total energy                     =  -77.112598842431467
  @RHF Final Energy:   -76.82339466603193
    Total Energy =                        -76.8233946660319305
      * MP2 total energy                      =  -77.097854539616762
      * CCSD total energy                     =  -77.112543683367804
  Basis Set: 6-31++G**
    Blend: 6-31++G**
  @RHF Final Energy:   -76.82339466603207
    Total Energy =                        -76.8233946660320726
      * MP2 total energy                      =  -77.097854539616847
      * CCSD total energy                     =  -77.112543683367889
  Basis Set: 6-31++G**
    Blend: 6-31++G**
  @RHF Final Energy:   -76.82339459376145
    Total Energy =                        -76.8233945937614351
      * MP2 total energy                      =  -77.097854356034887
      * CCSD total energy                     =  -77.112543502958658
  Basis Set: 6-31++G**
    Blend: 6-31++G**
  @RHF Final Energy:   -76.82339459376158
    Total Energy =                        -76.8233945937615772
      * MP2 total energy                      =  -77.097854356034901
      * CCSD total energy                     =  -77.112543502958687
    Molecular point group: c2v
  Charge       = 0
  Multiplicity = 1
  Basis Set: 6-31++G**
    Blend: 6-31++G**

    Orbital Energies [Eh]
    ---------------------

    Doubly Occupied:

       1A1   -11.261162     2A1   -11.257992     3A1    -1.024291
       4A1    -0.767627     5A1    -0.676043     1B1    -0.404178
       1B2    -0.404178

  @RHF Final Energy:   -76.82338949591180

   => Energetics <=

    Nuclear Repulsion Energy =             24.3232393838559098
    One-Electron Energy =                -150.7023160842626908
    Two-Electron Energy =                  49.5556872044949870
    Total Energy =                        -76.8233894959117976

  Dipole Moment: [D]
     X:     0.0044      Y:     0.0000      Z:     0.0000     Total:     0.0044

      * MP2 total energy                      =  -77.097849286177095
      * CCSD total energy                     =  -77.112538464730179
    Molecular point group: c2v

    Geometry (in Bohr), charge = 0, multiplicity = 1:

       Center              X                  Y                   Z
    ------------   -----------------  -----------------  -----------------
         C           -1.161445204175     0.000000000000     0.000000000000
         C            1.160877025923     0.000000000000     0.000000000000
         H           -3.188799462353     0.000000000000     0.000000000000
         H            3.195564663461     0.000000000000     0.000000000000

  -Total gradient:
     Atom            X                  Y                   Z
    ------   -----------------  -----------------  -----------------
       1       -0.024057628908     0.000000000000     0.000000000000
       2        0.021142020797     0.000000000000     0.000000000000
       3       -0.007052975326     0.000000000000     0.000000000000
       4        0.009968583436     0.000000000000     0.000000000000

  Vibration                       6                   7                   8
  Freq [cm^-1]                 517.4199            517.4199            805.6542
  Irrep                          B2g                 B1g                 B1u
  Reduced mass [u]              1.5641              1.5641              1.0848
  Force const [mDyne/A]         0.2467              0.2467              0.4149

  Vibration                       9                   10                  11
  Freq [cm^-1]                 805.6542           1959.0400           3361.5218
  Irrep                          B2u                  Ag                 B3u
  Reduced mass [u]              1.0848              4.0429              1.0848
  Force const [mDyne/A]         0.4149              9.1417              7.2223

  Vibration                       12
  Freq [cm^-1]                3454.3711
  Irrep                           Ag
  Reduced mass [u]              1.2074
  Force const [mDyne/A]         8.4887

  ==> Thermochemistry Components <==

  Entropy, S
    Electronic S            0.000 [cal/(mol K)]        0.000 [J/(mol K)]       0.00000000 [mEh/K] (multiplicity = 1)
    Translational S        35.704 [cal/(mol K)]      149.387 [J/(mol K)]       0.05689862 [mEh/K] (mol. weight = 26.0157 [u], P = 101325.00 [Pa])
    Rotational S           10.952 [cal/(mol K)]       45.824 [J/(mol K)]       0.01745345 [mEh/K] (symmetry no. = 2)
    Vibrational S           1.639 [cal/(mol K)]        6.858 [J/(mol K)]       0.00261205 [mEh/K]
  Total S                  48.296 [cal/(mol K)]      202.069 [J/(mol K)]       0.07696411 [mEh/K]
  Correction S              0.000 [cal/(mol K)]        0.000 [J/(mol K)]       0.00000000 [mEh/K]

  Constant volume heat capacity, Cv
    Electronic Cv           0.000 [cal/(mol K)]        0.000 [J/(mol K)]       0.00000000 [mEh/K]
    Translational Cv        2.981 [cal/(mol K)]       12.472 [J/(mol K)]       0.00475022 [mEh/K]
    Rotational Cv           1.987 [cal/(mol K)]        8.314 [J/(mol K)]       0.00316681 [mEh/K]
    Vibrational Cv          3.720 [cal/(mol K)]       15.563 [J/(mol K)]       0.00592781 [mEh/K]
  Total Cv                  8.688 [cal/(mol K)]       36.350 [J/(mol K)]       0.01384484 [mEh/K]
  Correction Cv             0.000 [cal/(mol K)]        0.000 [J/(mol K)]       0.00000000 [mEh/K]

  Constant pressure heat capacity, Cp
    Electronic Cp           0.000 [cal/(mol K)]        0.000 [J/(mol K)]       0.00000000 [mEh/K]
    Translational Cp        4.968 [cal/(mol K)]       20.786 [J/(mol K)]       0.00791703 [mEh/K]
    Rotational Cp           1.987 [cal/(mol K)]        8.314 [J/(mol K)]       0.00316681 [mEh/K]
    Vibrational Cp          3.720 [cal/(mol K)]       15.563 [J/(mol K)]       0.00592781 [mEh/K]
  Total Cp                 10.675 [cal/(mol K)]       44.664 [J/(mol K)]       0.01701165 [mEh/K]
  Correction Cp             0.000 [cal/(mol K)]        0.000 [J/(mol K)]       0.00000000 [mEh/K]

  ==> Thermochemistry Energy Analysis <==

  Raw electronic energy, E0
  Total E0, Electronic energy at well bottom at 0 [K]                  -77.11254381 [Eh]

  Zero-point energy, ZPE_vib = Sum_i nu_i / 2
    Electronic ZPE          0.000 [kcal/mol]        0.000 [kJ/mol]       0.00000000 [Eh]
    Translational ZPE       0.000 [kcal/mol]        0.000 [kJ/mol]       0.00000000 [Eh]
    Rotational ZPE          0.000 [kcal/mol]        0.000 [kJ/mol]       0.00000000 [Eh]
    Vibrational ZPE        16.327 [kcal/mol]       68.313 [kJ/mol]       0.02601914 [Eh]        5710.540 [cm^-1]
  Correction ZPE           16.327 [kcal/mol]       68.313 [kJ/mol]       0.02601914 [Eh]        5710.540 [cm^-1]
  Total ZPE, Electronic energy at 0 [K]                                -77.08652467 [Eh]

  Thermal Energy, E (includes ZPE)
    Electronic E            0.000 [kcal/mol]        0.000 [kJ/mol]       0.00000000 [Eh]
    Translational E         0.889 [kcal/mol]        3.718 [kJ/mol]       0.00141628 [Eh]
    Rotational E            0.592 [kcal/mol]        2.479 [kJ/mol]       0.00094418 [Eh]
    Vibrational E          16.690 [kcal/mol]       69.829 [kJ/mol]       0.02659649 [Eh]
  Correction E             18.171 [kcal/mol]       76.026 [kJ/mol]       0.02895695 [Eh]
  Total E, Electronic energy at  298.15 [K]                            -77.08358686 [Eh]

  Enthalpy, H_trans = E_trans + k_B * T
    Electronic H            0.000 [kcal/mol]        0.000 [kJ/mol]       0.00000000 [Eh]
    Translational H         1.481 [kcal/mol]        6.197 [kJ/mol]       0.00236046 [Eh]
    Rotational H            0.592 [kcal/mol]        2.479 [kJ/mol]       0.00094418 [Eh]
    Vibrational H          16.690 [kcal/mol]       69.829 [kJ/mol]       0.02659649 [Eh]
  Correction H             18.763 [kcal/mol]       78.505 [kJ/mol]       0.02990113 [Eh]
  Total H, Enthalpy at  298.15 [K]                                     -77.08264268 [Eh]

  Gibbs free energy, G = H - T * S
    Electronic G            0.000 [kcal/mol]        0.000 [kJ/mol]       0.00000000 [Eh]
    Translational G        -9.164 [kcal/mol]      -38.342 [kJ/mol]      -0.01460386 [Eh]
    Rotational G           -2.673 [kcal/mol]      -11.183 [kJ/mol]      -0.00425956 [Eh]
    Vibrational G          16.201 [kcal/mol]       67.784 [kJ/mol]       0.02581770 [Eh]
  Correction G              4.364 [kcal/mol]       18.258 [kJ/mol]       0.00695428 [Eh]
  Total G, Free enthalpy at  298.15 [K]                                -77.10558953 [Eh]

*** Psi4 exiting successfully. Buy a developer a beer!
