                               Psi4 1.3.2 release

  ==> Input File <==

--------------------------------------------------------------------------
set basis  6-31+G*
molecule {
0 1
   C        0.32153        0.81326        0.00000
   C       -0.86505       -0.12817        0.00000
   C        0.54353       -0.68508        0.00000
   H        0.53795        1.36069       -0.92039
   H        0.53795        1.36069        0.92039
   H       -1.44742       -0.21449        0.92034
   H       -1.44742       -0.21449       -0.92034
   H        0.90937       -1.14629       -0.92037
   H        0.90937       -1.14629        0.92037
}
energy('B3LYP')
frequencies('B3LYP')
--------------------------------------------------------------------------

    Molecular point group: cs
  Charge       = 0
  Multiplicity = 1
  Basis Set: 6-31+G*
    Blend: 6-31+G*
  Basis Set: (6-31+G* AUX)
    Blend: HEAVY-AUG-CC-PVDZ-JKFIT
  @DF-RKS Final Energy:  -117.90033022866264
    Total Energy =                       -117.9003302286626393
    Molecular point group: cs
  Basis Set: 6-31+G*
    Blend: 6-31+G*
  Basis Set: (6-31+G* AUX)
    Blend: HEAVY-AUG-CC-PVDZ-JKFIT
  @DF-RKS Final Energy:  -117.90033023132553
    Total Energy =                       -117.9003302313255261
  Basis Set: 6-31+G*
    Blend: 6-31+G*
  Basis Set: (6-31+G* AUX)
    Blend: HEAVY-AUG-CC-PVDZ-JKFIT
  Basis Set: 6-31+G*
    Blend: 6-31+G*
  Basis Set: (6-31+G* AUX)
    Blend: HEAVY-AUG-CC-PVDZ-JKFIT
  @DF-RKS Final Energy:  -117.90033023132446
    Total Energy =                       -117.9003302313244603
  Basis Set: 6-31+G*
  @DF-RKS Final Energy:  -117.90033219524035
    Total Energy =                       -117.9003321952403525
  @DF-RKS Final Energy:  -117.90033417457919
    Total Energy =                       -117.9003341745791857
  @DF-RKS Final Energy:  -117.90033149593344
    Total Energy =                       -117.9003314959334574
  @DF-RKS Final Energy:  -117.90033025567152
    Total Energy =                       -117.9003302556715198
  @DF-RKS Final Energy:  -117.90032819500897
    Total Energy =                       -117.9003281950089672
  @DF-RKS Final Energy:  -117.90032956088554
    Total Energy =                       -117.9003295608855382
  @DF-RKS Final Energy:  -117.90033102761743
    Total Energy =                       -117.9003310276174261
  @DF-RKS Final Energy:  -117.90033460609729
    Total Energy =                       -117.9003346060972746
  @DF-RKS Final Energy:  -117.90033121197837
    Total Energy =                       -117.9003312119783686
  @DF-RKS Final Energy:  -117.90032805918646
    Total Energy =                       -117.9003280591864495
  @DF-RKS Final Energy:  -117.90032817544233
    Total Energy =                       -117.9003281754423256
  @DF-RKS Final Energy:  -117.90033025515739
    Total Energy =                       -117.9003302551573853
  @DF-RKS Final Energy:  -117.90033643677474
    Total Energy =                       -117.9003364367747224
  @DF-RKS Final Energy:  -117.90032852244980
    Total Energy =                       -117.9003285224497972
  @DF-RKS Final Energy:  -117.90033672440045
    Total Energy =                       -117.9003367244004465
  @DF-RKS Final Energy:  -117.90032000684721
    Total Energy =                       -117.9003200068472097
  @DF-RKS Final Energy:  -117.90029998328161
    Total Energy =                       -117.9002999832816130
  @DF-RKS Final Energy:  -117.90035352885900
    Total Energy =                       -117.9003535288590001
  @DF-RKS Final Energy:  -117.90032542614357
    Total Energy =                       -117.9003254261435671
  @DF-RKS Final Energy:  -117.90034489688958
    Total Energy =                       -117.9003448968895782
  @DF-RKS Final Energy:  -117.90035343278069
    Total Energy =                       -117.9003534327806904
  @DF-RKS Final Energy:  -117.90030008026956
    Total Energy =                       -117.9003000802695738
  @DF-RKS Final Energy:  -117.90030003488694
    Total Energy =                       -117.9003000348869392
  @DF-RKS Final Energy:  -117.90035347736435
    Total Energy =                       -117.9003534773643480
  @DF-RKS Final Energy:  -117.90032826434972
    Total Energy =                       -117.9003282643497243
  @DF-RKS Final Energy:  -117.90032806915005
    Total Energy =                       -117.9003280691500493
  @DF-RKS Final Energy:  -117.90032739554758
    Total Energy =                       -117.9003273955475777
  @DF-RKS Final Energy:  -117.90032932874099
    Total Energy =                       -117.9003293287409946
  @DF-RKS Final Energy:  -117.90032820113102
    Total Energy =                       -117.9003282011310176
  @DF-RKS Final Energy:  -117.90032804103350
    Total Energy =                       -117.9003280410335037
  @DF-RKS Final Energy:  -117.90032796996357
    Total Energy =                       -117.9003279699635698
  Basis Set: (6-31+G* AUX)
    Blend: HEAVY-AUG-CC-PVDZ-JKFIT
  Basis Set: 6-31+G*
    Blend: 6-31+G*
  Basis Set: (6-31+G* AUX)
    Blend: HEAVY-AUG-CC-PVDZ-JKFIT
  @DF-RKS Final Energy:  -117.90032968332375
    Total Energy =                       -117.9003296833237471
  Basis Set: 6-31+G*
    Blend: 6-31+G*
  Basis Set: (6-31+G* AUX)
    Blend: HEAVY-AUG-CC-PVDZ-JKFIT
    Molecular point group: c1
  Charge       = 0
  Multiplicity = 1
  Basis Set: 6-31+G*
    Blend: 6-31+G*
  Basis Set: (6-31+G* AUX)
    Blend: HEAVY-AUG-CC-PVDZ-JKFIT

    Orbital Energies [Eh]
    ---------------------

    Doubly Occupied:

       1A    -10.191077     2A    -10.190718     3A    -10.190713
       4A     -0.847129     5A     -0.596730     6A     -0.596726
       7A     -0.493445     8A     -0.464422     9A     -0.366015
      10A     -0.366001    11A     -0.294481    12A     -0.294476

  @DF-RKS Final Energy:  -117.90032785101418

   => Energetics <=

    Nuclear Repulsion Energy =             75.2814718714328848
    One-Electron Energy =                -305.8256261044839448
    Two-Electron Energy =                 127.5992519142226342
    DFT Exchange-Correlation Energy =     -14.9554255321857372
    Empirical Dispersion Energy =           0.0000000000000000
    VV10 Nonlocal Energy =                  0.0000000000000000
    Total Energy =                       -117.9003278510141826

  Dipole Moment: [D]
     X:    -0.0001      Y:    -0.0001      Z:    -0.0007     Total:     0.0007

    Molecular point group: c1

    Geometry (in Angstrom), charge = 0, multiplicity = 1:

       Center              X                  Y                   Z               Mass
    ------------   -----------------  -----------------  -----------------  -----------------
         C            0.321531939855     0.813261460475     0.000000000000    12.000000000000
         C           -0.865048060145    -0.128168539525     0.000000000000    12.000000000000
         C            0.543531939855    -0.685078539525     0.000000000000    12.000000000000
         H            0.537951939855     1.360691460475    -0.920390000000     1.007825032230
         H            0.537951939855     1.360691460475     0.920390000000     1.007825032230
         H           -1.447418060145    -0.214488539525     0.919737951237     1.007825032230
         H           -1.447418060145    -0.214488539525    -0.920942048763     1.007825032230
         H            0.907830274543    -1.145679013968    -0.919767951237     1.007825032230
         H            0.910913605168    -1.146898065083     0.920972048763     1.007825032230

  Basis Set: 6-31+G*
    Blend: 6-31+G*
  Basis Set: (6-31+G* AUX)
    Blend: HEAVY-AUG-CC-PVDZ-JKFIT

  -Total Gradient:
     Atom            X                  Y                   Z
    ------   -----------------  -----------------  -----------------
       1        0.000147624642     0.000388696824     0.000003933662
       2       -0.000382919201    -0.000053308158     0.000439401709
       3        0.000256682182    -0.000314454540    -0.001232130036
       4        0.000407979577     0.001037129071    -0.003800265473
       5        0.000414227378     0.001049888082     0.003798062095
       6       -0.000943182615    -0.000165787326     0.003511453700
       7       -0.001291819287    -0.000172382081    -0.004067280283
       8        0.000335154140    -0.000525386140    -0.003119548921
       9        0.001055086325    -0.001240804651     0.004466518715

  Vibration                       7                   8                   9
  Freq [cm^-1]                 776.7233            776.8931            875.6882
  Irrep                          App                 App                  Ap
  Reduced mass [u]              1.0208              1.0208              3.9665
  Force const [mDyne/A]         0.3628              0.3630              1.7921

  Vibration                       10                  11                  12
  Freq [cm^-1]                 876.7239            894.4183           1072.0107
  Irrep                           Ap                 App                  Ap
  Reduced mass [u]              3.9797              1.0442              1.2386
  Force const [mDyne/A]         1.8023              0.4921              0.8387

  Vibration                       13                  14                  15
  Freq [cm^-1]                1075.0730           1103.1104           1167.7362
  Irrep                           Ap                  Ap                 App
  Reduced mass [u]              1.2408              1.4254              1.0078
  Force const [mDyne/A]         0.8449              1.0219              0.8097

  Vibration                       16                  17                  18
  Freq [cm^-1]                1210.1457           1231.6035           1231.7254
  Irrep                           Ap                 App                 App
  Reduced mass [u]              2.8527              1.4518              1.4517
  Force const [mDyne/A]         2.4614              1.2974              1.2976

  Vibration                       19                  20                  21
  Freq [cm^-1]                1495.0090           1495.3121           1542.2688
  Irrep                           Ap                  Ap                  Ap
  Reduced mass [u]              1.0885              1.0890              1.2896
  Force const [mDyne/A]         1.4334              1.4347              1.8073

  Vibration                       22                  23                  24
  Freq [cm^-1]                3089.0743           3089.3133           3097.0478
  Irrep                           Ap                  Ap                  Ap
  Reduced mass [u]              1.0498              1.0499              1.0617
  Force const [mDyne/A]         5.9024              5.9039              6.0001

  Vibration                       25                  26                  27
  Freq [cm^-1]                3163.5087           3163.5322           3185.1084
  Irrep                          App                 App                 App
  Reduced mass [u]              1.1202              1.1202              1.1160
  Force const [mDyne/A]         6.6051              6.6052              6.6707

  ==> Thermochemistry Components <==

  Entropy, S
    Electronic S            0.000 [cal/(mol K)]        0.000 [J/(mol K)]       0.00000000 [mEh/K] (multiplicity = 1)
    Translational S        37.135 [cal/(mol K)]      155.375 [J/(mol K)]       0.05917914 [mEh/K] (mol. weight = 42.0470 [u], P = 101325.00 [Pa])
    Rotational S           21.699 [cal/(mol K)]       90.789 [J/(mol K)]       0.03457982 [mEh/K] (symmetry no. = 1)
    Vibrational S           1.298 [cal/(mol K)]        5.429 [J/(mol K)]       0.00206779 [mEh/K]
  Total S                  60.132 [cal/(mol K)]      251.593 [J/(mol K)]       0.09582675 [mEh/K]
  Correction S              0.000 [cal/(mol K)]        0.000 [J/(mol K)]       0.00000000 [mEh/K]

  Constant volume heat capacity, Cv
    Electronic Cv           0.000 [cal/(mol K)]        0.000 [J/(mol K)]       0.00000000 [mEh/K]
    Translational Cv        2.981 [cal/(mol K)]       12.472 [J/(mol K)]       0.00475022 [mEh/K]
    Rotational Cv           2.981 [cal/(mol K)]       12.472 [J/(mol K)]       0.00475022 [mEh/K]
    Vibrational Cv          4.851 [cal/(mol K)]       20.297 [J/(mol K)]       0.00773060 [mEh/K]
  Total Cv                 10.813 [cal/(mol K)]       45.240 [J/(mol K)]       0.01723104 [mEh/K]
  Correction Cv             0.000 [cal/(mol K)]        0.000 [J/(mol K)]       0.00000000 [mEh/K]

  Constant pressure heat capacity, Cp
    Electronic Cp           0.000 [cal/(mol K)]        0.000 [J/(mol K)]       0.00000000 [mEh/K]
    Translational Cp        4.968 [cal/(mol K)]       20.786 [J/(mol K)]       0.00791703 [mEh/K]
    Rotational Cp           2.981 [cal/(mol K)]       12.472 [J/(mol K)]       0.00475022 [mEh/K]
    Vibrational Cp          4.851 [cal/(mol K)]       20.297 [J/(mol K)]       0.00773060 [mEh/K]
  Total Cp                 12.800 [cal/(mol K)]       53.555 [J/(mol K)]       0.02039785 [mEh/K]
  Correction Cp             0.000 [cal/(mol K)]        0.000 [J/(mol K)]       0.00000000 [mEh/K]

  ==> Thermochemistry Energy Analysis <==

  Raw electronic energy, E0
  Total E0, Electronic energy at well bottom at 0 [K]                 -117.90033023 [Eh]

  Zero-point energy, ZPE_vib = Sum_i nu_i / 2
    Electronic ZPE          0.000 [kcal/mol]        0.000 [kJ/mol]       0.00000000 [Eh]
    Translational ZPE       0.000 [kcal/mol]        0.000 [kJ/mol]       0.00000000 [Eh]
    Rotational ZPE          0.000 [kcal/mol]        0.000 [kJ/mol]       0.00000000 [Eh]
    Vibrational ZPE        50.910 [kcal/mol]      213.007 [kJ/mol]       0.08113017 [Eh]       17806.013 [cm^-1]
  Correction ZPE           50.910 [kcal/mol]      213.007 [kJ/mol]       0.08113017 [Eh]       17806.013 [cm^-1]
  Total ZPE, Electronic energy at 0 [K]                               -117.81920007 [Eh]

  Thermal Energy, E (includes ZPE)
    Electronic E            0.000 [kcal/mol]        0.000 [kJ/mol]       0.00000000 [Eh]
    Translational E         0.889 [kcal/mol]        3.718 [kJ/mol]       0.00141628 [Eh]
    Rotational E            0.889 [kcal/mol]        3.718 [kJ/mol]       0.00141628 [Eh]
    Vibrational E          51.225 [kcal/mol]      214.327 [kJ/mol]       0.08163296 [Eh]
  Correction E             53.003 [kcal/mol]      221.764 [kJ/mol]       0.08446551 [Eh]
  Total E, Electronic energy at  298.15 [K]                           -117.81586472 [Eh]

  Enthalpy, H_trans = E_trans + k_B * T
    Electronic H            0.000 [kcal/mol]        0.000 [kJ/mol]       0.00000000 [Eh]
    Translational H         1.481 [kcal/mol]        6.197 [kJ/mol]       0.00236046 [Eh]
    Rotational H            0.889 [kcal/mol]        3.718 [kJ/mol]       0.00141628 [Eh]
    Vibrational H          51.225 [kcal/mol]      214.327 [kJ/mol]       0.08163296 [Eh]
  Correction H             53.595 [kcal/mol]      224.243 [kJ/mol]       0.08540969 [Eh]
  Total H, Enthalpy at  298.15 [K]                                    -117.81492054 [Eh]

  Gibbs free energy, G = H - T * S
    Electronic G            0.000 [kcal/mol]        0.000 [kJ/mol]       0.00000000 [Eh]
    Translational G        -9.591 [kcal/mol]      -40.128 [kJ/mol]      -0.01528380 [Eh]
    Rotational G           -5.581 [kcal/mol]      -23.350 [kJ/mol]      -0.00889370 [Eh]
    Vibrational G          50.839 [kcal/mol]      212.709 [kJ/mol]       0.08101644 [Eh]
  Correction G             35.667 [kcal/mol]      149.231 [kJ/mol]       0.05683895 [Eh]
  Total G, Free enthalpy at  298.15 [K]                               -117.84349128 [Eh]

*** Psi4 exiting successfully. Buy a developer a beer!
