                               Psi4 1.3.2 release

  ==> Input File <==

--------------------------------------------------------------------------
set basis  6-31++G**
molecule {
0 1
   O        0.00000        0.00000       -0.06797
   H        0.74903        0.00000        0.53936
   H       -0.74903        0.00000        0.53936
}
energy('m06-2x')
frequencies('m06-2x')

--------------------------------------------------------------------------

    Molecular point group: c2v
  Charge       = 0
  Multiplicity = 1
  Basis Set: 6-31++G**
    Blend: 6-31++G**
  Basis Set: (6-31++G** AUX)
    Blend: AUG-CC-PVDZ-JKFIT
  @DF-RKS Final Energy:   -76.39464311249962
    Total Energy =                        -76.3946431124996224
    Molecular point group: c2v
  Basis Set: 6-31++G**
    Blend: 6-31++G**
  Basis Set: (6-31++G** AUX)
    Blend: AUG-CC-PVDZ-JKFIT
  @DF-RKS Final Energy:   -76.39464311259459
    Total Energy =                        -76.3946431125945935
  Basis Set: 6-31++G**
    Blend: 6-31++G**
  Basis Set: (6-31++G** AUX)
    Blend: AUG-CC-PVDZ-JKFIT
  Basis Set: 6-31++G**
    Blend: 6-31++G**
  Basis Set: (6-31++G** AUX)
    Blend: AUG-CC-PVDZ-JKFIT
  @DF-RKS Final Energy:   -76.39464311259457
    Total Energy =                        -76.3946431125945651
  Basis Set: 6-31++G**
  @DF-RKS Final Energy:   -76.39460279046084
    Total Energy =                        -76.3946027904608371
  @DF-RKS Final Energy:   -76.39467676715142
    Total Energy =                        -76.3946767671514237
  @DF-RKS Final Energy:   -76.39461330612478
    Total Energy =                        -76.3946133061247821
  Basis Set: (6-31++G** AUX)
    Blend: AUG-CC-PVDZ-JKFIT
  Basis Set: 6-31++G**
    Blend: 6-31++G**
  Basis Set: (6-31++G** AUX)
    Blend: AUG-CC-PVDZ-JKFIT
  @DF-RKS Final Energy:   -76.39466291268923
    Total Energy =                        -76.3946629126892276
  Basis Set: 6-31++G**
    Blend: 6-31++G**
  Basis Set: (6-31++G** AUX)
    Blend: AUG-CC-PVDZ-JKFIT
    Molecular point group: cs
  Charge       = 0
  Multiplicity = 1
  Basis Set: 6-31++G**
    Blend: 6-31++G**
  Basis Set: (6-31++G** AUX)
    Blend: AUG-CC-PVDZ-JKFIT

    Orbital Energies [Eh]
    ---------------------

    Doubly Occupied:

       1Ap   -19.652280     2Ap    -1.137213     3Ap    -0.603857
       4Ap    -0.475750     1App   -0.397709

  @DF-RKS Final Energy:   -76.39463574096759

   => Energetics <=

    Nuclear Repulsion Energy =              9.1334682877742281
    One-Electron Energy =                -122.8192426319284607
    Two-Electron Energy =                  41.7571942482657761
    DFT Exchange-Correlation Energy =      -4.4660556450791367
    Empirical Dispersion Energy =           0.0000000000000000
    VV10 Nonlocal Energy =                  0.0000000000000000
    Total Energy =                        -76.3946357409675869

  Dipole Moment: [D]
     X:     0.0030      Y:     0.0000      Z:     2.2807     Total:     2.2807

    Molecular point group: cs

    Geometry (in Angstrom), charge = 0, multiplicity = 1:

       Center              X                  Y                   Z               Mass
    ------------   -----------------  -----------------  -----------------  -----------------
         O           -0.000175859669     0.000000000000    -0.067969259994    15.994914619570
         H            0.750425510279     0.000000000000     0.540492250436     1.007825032230
         H           -0.747634489721     0.000000000000     0.538229229576     1.007825032230

  Basis Set: 6-31++G**
    Blend: 6-31++G**
  Basis Set: (6-31++G** AUX)
    Blend: AUG-CC-PVDZ-JKFIT

  -Total Gradient:
     Atom            X                  Y                   Z
    ------   -----------------  -----------------  -----------------
       1       -0.003160090651     0.000000000000    -0.009966514361
       2       -0.001967008245     0.000000000000     0.006218485432
       3        0.005133162074     0.000000000000     0.003685931530

  Vibration                       7                   8                   9
  Freq [cm^-1]                1637.9176           3867.3603           3957.1694
  Irrep                           A1                  A1                  B1
  Reduced mass [u]              1.0808              1.0470              1.0793
  Force const [mDyne/A]         1.7083              9.2258              9.9576

  ==> Thermochemistry Components <==

  Entropy, S
    Electronic S            0.000 [cal/(mol K)]        0.000 [J/(mol K)]       0.00000000 [mEh/K] (multiplicity = 1)
    Translational S        34.608 [cal/(mol K)]      144.801 [J/(mol K)]       0.05515177 [mEh/K] (mol. weight = 18.0106 [u], P = 101325.00 [Pa])
    Rotational S           10.508 [cal/(mol K)]       43.968 [J/(mol K)]       0.01674635 [mEh/K] (symmetry no. = 2)
    Vibrational S           0.007 [cal/(mol K)]        0.027 [J/(mol K)]       0.00001042 [mEh/K]
  Total S                  45.123 [cal/(mol K)]      188.796 [J/(mol K)]       0.07190854 [mEh/K]
  Correction S              0.000 [cal/(mol K)]        0.000 [J/(mol K)]       0.00000000 [mEh/K]

  Constant volume heat capacity, Cv
    Electronic Cv           0.000 [cal/(mol K)]        0.000 [J/(mol K)]       0.00000000 [mEh/K]
    Translational Cv        2.981 [cal/(mol K)]       12.472 [J/(mol K)]       0.00475022 [mEh/K]
    Rotational Cv           2.981 [cal/(mol K)]       12.472 [J/(mol K)]       0.00475022 [mEh/K]
    Vibrational Cv          0.046 [cal/(mol K)]        0.192 [J/(mol K)]       0.00007312 [mEh/K]
  Total Cv                  6.007 [cal/(mol K)]       25.135 [J/(mol K)]       0.00957355 [mEh/K]
  Correction Cv             0.000 [cal/(mol K)]        0.000 [J/(mol K)]       0.00000000 [mEh/K]

  Constant pressure heat capacity, Cp
    Electronic Cp           0.000 [cal/(mol K)]        0.000 [J/(mol K)]       0.00000000 [mEh/K]
    Translational Cp        4.968 [cal/(mol K)]       20.786 [J/(mol K)]       0.00791703 [mEh/K]
    Rotational Cp           2.981 [cal/(mol K)]       12.472 [J/(mol K)]       0.00475022 [mEh/K]
    Vibrational Cp          0.046 [cal/(mol K)]        0.192 [J/(mol K)]       0.00007312 [mEh/K]
  Total Cp                  7.995 [cal/(mol K)]       33.450 [J/(mol K)]       0.01274036 [mEh/K]
  Correction Cp             0.000 [cal/(mol K)]        0.000 [J/(mol K)]       0.00000000 [mEh/K]

  ==> Thermochemistry Energy Analysis <==

  Raw electronic energy, E0
  Total E0, Electronic energy at well bottom at 0 [K]                  -76.39464311 [Eh]

  Zero-point energy, ZPE_vib = Sum_i nu_i / 2
    Electronic ZPE          0.000 [kcal/mol]        0.000 [kJ/mol]       0.00000000 [Eh]
    Translational ZPE       0.000 [kcal/mol]        0.000 [kJ/mol]       0.00000000 [Eh]
    Rotational ZPE          0.000 [kcal/mol]        0.000 [kJ/mol]       0.00000000 [Eh]
    Vibrational ZPE        13.527 [kcal/mol]       56.598 [kJ/mol]       0.02155704 [Eh]        4731.224 [cm^-1]
  Correction ZPE           13.527 [kcal/mol]       56.598 [kJ/mol]       0.02155704 [Eh]        4731.224 [cm^-1]
  Total ZPE, Electronic energy at 0 [K]                                -76.37308607 [Eh]

  Thermal Energy, E (includes ZPE)
    Electronic E            0.000 [kcal/mol]        0.000 [kJ/mol]       0.00000000 [Eh]
    Translational E         0.889 [kcal/mol]        3.718 [kJ/mol]       0.00141628 [Eh]
    Rotational E            0.889 [kcal/mol]        3.718 [kJ/mol]       0.00141628 [Eh]
    Vibrational E          13.529 [kcal/mol]       56.605 [kJ/mol]       0.02155980 [Eh]
  Correction E             15.306 [kcal/mol]       64.042 [kJ/mol]       0.02439235 [Eh]
  Total E, Electronic energy at  298.15 [K]                            -76.37025076 [Eh]

  Enthalpy, H_trans = E_trans + k_B * T
    Electronic H            0.000 [kcal/mol]        0.000 [kJ/mol]       0.00000000 [Eh]
    Translational H         1.481 [kcal/mol]        6.197 [kJ/mol]       0.00236046 [Eh]
    Rotational H            0.889 [kcal/mol]        3.718 [kJ/mol]       0.00141628 [Eh]
    Vibrational H          13.529 [kcal/mol]       56.605 [kJ/mol]       0.02155980 [Eh]
  Correction H             15.899 [kcal/mol]       66.521 [kJ/mol]       0.02533654 [Eh]
  Total H, Enthalpy at  298.15 [K]                                     -76.36930658 [Eh]

  Gibbs free energy, G = H - T * S
    Electronic G            0.000 [kcal/mol]        0.000 [kJ/mol]       0.00000000 [Eh]
    Translational G        -8.837 [kcal/mol]      -36.975 [kJ/mol]      -0.01408304 [Eh]
    Rotational G           -2.244 [kcal/mol]       -9.390 [kJ/mol]      -0.00357665 [Eh]
    Vibrational G          13.527 [kcal/mol]       56.597 [kJ/mol]       0.02155669 [Eh]
  Correction G              2.445 [kcal/mol]       10.232 [kJ/mol]       0.00389700 [Eh]
  Total G, Free enthalpy at  298.15 [K]                                -76.39074611 [Eh]

*** Psi4 exiting successfully. Buy a developer a beer!
