                               Psi4 1.3.2 release

  ==> Input File <==

--------------------------------------------------------------------------
set basis  6-311++g**
molecule {
0 1
   C       -0.61446        0.00000        0.00000
   C        0.61446        0.00000        0.00000
   H       -1.68923        0.00000        0.00000
   H        1.68923        0.00000        0.00000
}
energy('scf')
frequencies('scf')
--------------------------------------------------------------------------

    Molecular point group: d2h
  Charge       = 0
  Multiplicity = 1
  Basis Set: 6-311++G**
    Blend: 6-311++G**
  Basis Set: (6-311++G** AUX)
    Blend: AUG-CC-PVTZ-JKFIT
  @DF-RHF Final Energy:   -76.83790701275991
    Total Energy =                        -76.8379070127599135
    Molecular point group: d2h
  Basis Set: 6-311++G**
    Blend: 6-311++G**
  Basis Set: (6-311++G** AUX)
    Blend: AUG-CC-PVTZ-JKFIT
  @DF-RHF Final Energy:   -76.83790701281687
    Total Energy =                        -76.8379070128168706
  Basis Set: 6-311++G**
    Blend: 6-311++G**
  Basis Set: (6-311++G** AUX)
    Blend: AUG-CC-PVTZ-JKFIT

  -Total Gradient:
     Atom            X                  Y                   Z
    ------   -----------------  -----------------  -----------------
       1       -0.081818152463    -0.000000000000     0.000000000000
       2        0.081818152463     0.000000000000     0.000000000000
       3       -0.014529406993    -0.000000000000     0.000000000000
       4        0.014529406993     0.000000000000     0.000000000000

  Charge       = 0
  Multiplicity = 1
  Basis Set: 6-311++G**
    Blend: 6-311++G**
  Basis Set: (6-311++G** AUX)
    Blend: AUG-CC-PVTZ-JKFIT

    Orbital Energies [Eh]
    ---------------------

    Doubly Occupied:

       1Ag   -11.254423     1B3u  -11.251179     2Ag    -1.025187
       2B3u   -0.767826     3Ag    -0.678497     1B2u   -0.405957
       1B1u   -0.405957

  @DF-RHF Final Energy:   -76.83790701281687

   => Energetics <=

    Nuclear Repulsion Energy =             24.3232181713792350
    One-Electron Energy =                -150.7441975620579342
    Two-Electron Energy =                  49.5830723778618250
    Total Energy =                        -76.8379070128168706

  Dipole Moment: [D]
     X:     0.0000      Y:     0.0000      Z:     0.0000     Total:     0.0000

    Molecular point group: d2h
  Basis Set: 6-311++G**
    Blend: 6-311++G**
  Basis Set: (6-311++G** AUX)
    Blend: AUG-CC-PVTZ-JKFIT
  Basis Set: (6-311++G** AUX)
    Blend: AUG-CC-PVTZ-JKFIT
    Molecular point group: d2h

    Geometry (in Angstrom), charge = 0, multiplicity = 1:

       Center              X                  Y                   Z               Mass
    ------------   -----------------  -----------------  -----------------  -----------------
         C           -0.614460000000    -0.000000000000     0.000000000000    12.000000000000
         C            0.614460000000     0.000000000000     0.000000000000    12.000000000000
         H           -1.689230000000    -0.000000000000     0.000000000000     1.007825032230
         H            1.689230000000     0.000000000000     0.000000000000     1.007825032230

  Basis Set: 6-311++G**
    Blend: 6-311++G**
  Basis Set: (6-311++G** AUX)
    Blend: AUG-CC-PVTZ-JKFIT

  Vibration                       4                   5                   6
  Freq [cm^-1]                 375.1651            375.1651            863.9847
  Irrep
  Reduced mass [u]              2.1648              2.1648              1.6297
  Force const [mDyne/A]         0.1795              0.1795              0.7167

  IR activ [km/mol]             0.0000              0.0000              0.0000

  Vibration                       7                   8                   9
  Freq [cm^-1]                 863.9847            946.7725            946.7725
  Irrep                                              B2u                 B1u
  Reduced mass [u]              1.6297              1.0848              1.0848
  Force const [mDyne/A]         0.7167              0.5729              0.5729

  IR activ [km/mol]             0.0000             132.9279            132.9279

  Vibration                       10                  11                  12
  Freq [cm^-1]                1956.0785           3385.5280           3474.7011
  Irrep                           Ag                 B3u                  Ag
  Reduced mass [u]              4.0269              1.0848              1.2088
  Force const [mDyne/A]         9.0780              7.3259              8.5991

  IR activ [km/mol]             0.0000             119.8709             0.0000

  ==> Thermochemistry Components <==

  Entropy, S
    Electronic S            0.000 [cal/(mol K)]        0.000 [J/(mol K)]       0.00000000 [mEh/K] (multiplicity = 1)
    Translational S        35.704 [cal/(mol K)]      149.387 [J/(mol K)]       0.05689862 [mEh/K] (mol. weight = 26.0157 [u], P = 101325.00 [Pa])
    Rotational S           10.952 [cal/(mol K)]       45.824 [J/(mol K)]       0.01745345 [mEh/K] (symmetry no. = 2)
    Vibrational S           2.673 [cal/(mol K)]       11.183 [J/(mol K)]       0.00425930 [mEh/K]
  Total S                  49.329 [cal/(mol K)]      206.394 [J/(mol K)]       0.07861137 [mEh/K]
  Correction S              0.000 [cal/(mol K)]        0.000 [J/(mol K)]       0.00000000 [mEh/K]

  Constant volume heat capacity, Cv
    Electronic Cv           0.000 [cal/(mol K)]        0.000 [J/(mol K)]       0.00000000 [mEh/K]
    Translational Cv        2.981 [cal/(mol K)]       12.472 [J/(mol K)]       0.00475022 [mEh/K]
    Rotational Cv           1.987 [cal/(mol K)]        8.314 [J/(mol K)]       0.00316681 [mEh/K]
    Vibrational Cv          5.041 [cal/(mol K)]       21.090 [J/(mol K)]       0.00803293 [mEh/K]
  Total Cv                 10.009 [cal/(mol K)]       41.877 [J/(mol K)]       0.01594995 [mEh/K]
  Correction Cv             0.000 [cal/(mol K)]        0.000 [J/(mol K)]       0.00000000 [mEh/K]

  Constant pressure heat capacity, Cp
    Electronic Cp           0.000 [cal/(mol K)]        0.000 [J/(mol K)]       0.00000000 [mEh/K]
    Translational Cp        4.968 [cal/(mol K)]       20.786 [J/(mol K)]       0.00791703 [mEh/K]
    Rotational Cp           1.987 [cal/(mol K)]        8.314 [J/(mol K)]       0.00316681 [mEh/K]
    Vibrational Cp          5.041 [cal/(mol K)]       21.090 [J/(mol K)]       0.00803293 [mEh/K]
  Total Cp                 11.996 [cal/(mol K)]       50.191 [J/(mol K)]       0.01911676 [mEh/K]
  Correction Cp             0.000 [cal/(mol K)]        0.000 [J/(mol K)]       0.00000000 [mEh/K]

  ==> Thermochemistry Energy Analysis <==

  Raw electronic energy, E0
  Total E0, Electronic energy at well bottom at 0 [K]                  -76.83790701 [Eh]

  Zero-point energy, ZPE_vib = Sum_i nu_i / 2
    Electronic ZPE          0.000 [kcal/mol]        0.000 [kJ/mol]       0.00000000 [Eh]
    Translational ZPE       0.000 [kcal/mol]        0.000 [kJ/mol]       0.00000000 [Eh]
    Rotational ZPE          0.000 [kcal/mol]        0.000 [kJ/mol]       0.00000000 [Eh]
    Vibrational ZPE        18.853 [kcal/mol]       78.883 [kJ/mol]       0.03004482 [Eh]        6594.076 [cm^-1]
  Correction ZPE           18.853 [kcal/mol]       78.883 [kJ/mol]       0.03004482 [Eh]        6594.076 [cm^-1]
  Total ZPE, Electronic energy at 0 [K]                                -76.80786219 [Eh]

  Thermal Energy, E (includes ZPE)
    Electronic E            0.000 [kcal/mol]        0.000 [kJ/mol]       0.00000000 [Eh]
    Translational E         0.889 [kcal/mol]        3.718 [kJ/mol]       0.00141628 [Eh]
    Rotational E            0.592 [kcal/mol]        2.479 [kJ/mol]       0.00094418 [Eh]
    Vibrational E          19.408 [kcal/mol]       81.202 [kJ/mol]       0.03092823 [Eh]
  Correction E             20.889 [kcal/mol]       87.399 [kJ/mol]       0.03328869 [Eh]
  Total E, Electronic energy at  298.15 [K]                            -76.80461833 [Eh]

  Enthalpy, H_trans = E_trans + k_B * T
    Electronic H            0.000 [kcal/mol]        0.000 [kJ/mol]       0.00000000 [Eh]
    Translational H         1.481 [kcal/mol]        6.197 [kJ/mol]       0.00236046 [Eh]
    Rotational H            0.592 [kcal/mol]        2.479 [kJ/mol]       0.00094418 [Eh]
    Vibrational H          19.408 [kcal/mol]       81.202 [kJ/mol]       0.03092823 [Eh]
  Correction H             21.481 [kcal/mol]       89.878 [kJ/mol]       0.03423287 [Eh]
  Total H, Enthalpy at  298.15 [K]                                     -76.80367414 [Eh]

  Gibbs free energy, G = H - T * S
    Electronic G            0.000 [kcal/mol]        0.000 [kJ/mol]       0.00000000 [Eh]
    Translational G        -9.164 [kcal/mol]      -38.342 [kJ/mol]      -0.01460386 [Eh]
    Rotational G           -2.673 [kcal/mol]      -11.183 [kJ/mol]      -0.00425956 [Eh]
    Vibrational G          18.611 [kcal/mol]       77.868 [kJ/mol]       0.02965832 [Eh]
  Correction G              6.774 [kcal/mol]       28.342 [kJ/mol]       0.01079489 [Eh]
  Total G, Free enthalpy at  298.15 [K]                                -76.82711212 [Eh]

*** Psi4 exiting successfully. Buy a developer a beer!
