                               Psi4 1.3.2 release

  ==> Input File <==

--------------------------------------------------------------------------
set basis  6-31+G*
molecule {
0 1
   O        0.00000        0.00000        0.49152
   C        0.00000        0.00000       -0.65516
}
energy('B3LYP')
frequencies('B3LYP')
--------------------------------------------------------------------------

    Molecular point group: c2v
  Charge       = 0
  Multiplicity = 1
  Basis Set: 6-31+G*
    Blend: 6-31+G*
  Basis Set: (6-31+G* AUX)
    Blend: HEAVY-AUG-CC-PVDZ-JKFIT
  @DF-RKS Final Energy:  -113.31707981000864
    Total Energy =                       -113.3170798100086358
    Molecular point group: c2v
  Basis Set: 6-31+G*
    Blend: 6-31+G*
  Basis Set: (6-31+G* AUX)
    Blend: HEAVY-AUG-CC-PVDZ-JKFIT
  @DF-RKS Final Energy:  -113.31707981001361
    Total Energy =                       -113.3170798100136096
  Basis Set: 6-31+G*
    Blend: 6-31+G*
  Basis Set: (6-31+G* AUX)
    Blend: HEAVY-AUG-CC-PVDZ-JKFIT
  Basis Set: 6-31+G*
    Blend: 6-31+G*
  Basis Set: (6-31+G* AUX)
    Blend: HEAVY-AUG-CC-PVDZ-JKFIT
  @DF-RKS Final Energy:  -113.31707981001361
    Total Energy =                       -113.3170798100136096
  Basis Set: 6-31+G*
  @DF-RKS Final Energy:  -113.31711901383224
    Total Energy =                       -113.3171190138322402
  @DF-RKS Final Energy:  -113.31703631269779
    Total Energy =                       -113.3170363126977946
  Basis Set: (6-31+G* AUX)
    Blend: HEAVY-AUG-CC-PVDZ-JKFIT
  Basis Set: 6-31+G*
    Blend: 6-31+G*
  Basis Set: (6-31+G* AUX)
    Blend: HEAVY-AUG-CC-PVDZ-JKFIT
  @DF-RKS Final Energy:  -113.31707979176372
    Total Energy =                       -113.3170797917637174
  Basis Set: 6-31+G*
    Blend: 6-31+G*
  Basis Set: (6-31+G* AUX)
    Blend: HEAVY-AUG-CC-PVDZ-JKFIT
    Molecular point group: cs
  Charge       = 0
  Multiplicity = 1
  Basis Set: 6-31+G*
    Blend: 6-31+G*
  Basis Set: (6-31+G* AUX)
    Blend: HEAVY-AUG-CC-PVDZ-JKFIT

    Orbital Energies [Eh]
    ---------------------

    Doubly Occupied:

       1Ap   -19.275033     2Ap   -10.324327     3Ap    -1.168921
       4Ap    -0.584509     5Ap    -0.479144     1App   -0.479144
       6Ap    -0.388140

  @DF-RKS Final Energy:  -113.31707979175944

   => Energetics <=

    Nuclear Repulsion Energy =             22.1513379928885605
    One-Electron Energy =                -197.4845682824820017
    Two-Electron Energy =                  73.2129033914448684
    DFT Exchange-Correlation Energy =     -11.1967528936108565
    Empirical Dispersion Energy =           0.0000000000000000
    VV10 Nonlocal Energy =                  0.0000000000000000
    Total Energy =                       -113.3170797917594257

  Dipole Moment: [D]
     X:     0.0000      Y:     0.0000      Z:    -0.0079     Total:     0.0079

    Molecular point group: cs

    Geometry (in Angstrom), charge = 0, multiplicity = 1:

       Center              X                  Y                   Z               Mass
    ------------   -----------------  -----------------  -----------------  -----------------
         O            0.000000000000    -0.000433142923     0.491523556581    15.994914619570
         C            0.000000000000     0.000577340340    -0.655156443419    12.000000000000

  Basis Set: 6-31+G*
    Blend: 6-31+G*
  Basis Set: (6-31+G* AUX)
    Blend: HEAVY-AUG-CC-PVDZ-JKFIT

  -Total Gradient:
     Atom            X                  Y                   Z
    ------   -----------------  -----------------  -----------------
       1        0.000000000000    -0.000019078643     0.021650133628
       2        0.000000000000     0.000019081941    -0.021653876249

  Vibration                       4                   5                   6
  Freq [cm^-1]                 196.2427            196.2427           2130.3498
  Irrep                           B2                  B1                  A1
  Reduced mass [u]             13.4388             13.4388             13.4388
  Force const [mDyne/A]         0.3049              0.3049             35.9345

  ==> Thermochemistry Components <==

  Entropy, S
    Electronic S            0.000 [cal/(mol K)]        0.000 [J/(mol K)]       0.00000000 [mEh/K] (multiplicity = 1)
    Translational S        35.923 [cal/(mol K)]      150.302 [J/(mol K)]       0.05724692 [mEh/K] (mol. weight = 27.9949 [u], P = 101325.00 [Pa])
    Rotational S           11.343 [cal/(mol K)]       47.458 [J/(mol K)]       0.01807582 [mEh/K] (symmetry no. = 1)
    Vibrational S           4.337 [cal/(mol K)]       18.145 [J/(mol K)]       0.00691121 [mEh/K]
  Total S                  51.603 [cal/(mol K)]      215.905 [J/(mol K)]       0.08223395 [mEh/K]
  Correction S              0.000 [cal/(mol K)]        0.000 [J/(mol K)]       0.00000000 [mEh/K]

  Constant volume heat capacity, Cv
    Electronic Cv           0.000 [cal/(mol K)]        0.000 [J/(mol K)]       0.00000000 [mEh/K]
    Translational Cv        2.981 [cal/(mol K)]       12.472 [J/(mol K)]       0.00475022 [mEh/K]
    Rotational Cv           1.987 [cal/(mol K)]        8.314 [J/(mol K)]       0.00316681 [mEh/K]
    Vibrational Cv          3.697 [cal/(mol K)]       15.470 [J/(mol K)]       0.00589225 [mEh/K]
  Total Cv                  8.665 [cal/(mol K)]       36.256 [J/(mol K)]       0.01380928 [mEh/K]
  Correction Cv             0.000 [cal/(mol K)]        0.000 [J/(mol K)]       0.00000000 [mEh/K]

  Constant pressure heat capacity, Cp
    Electronic Cp           0.000 [cal/(mol K)]        0.000 [J/(mol K)]       0.00000000 [mEh/K]
    Translational Cp        4.968 [cal/(mol K)]       20.786 [J/(mol K)]       0.00791703 [mEh/K]
    Rotational Cp           1.987 [cal/(mol K)]        8.314 [J/(mol K)]       0.00316681 [mEh/K]
    Vibrational Cp          3.697 [cal/(mol K)]       15.470 [J/(mol K)]       0.00589225 [mEh/K]
  Total Cp                 10.653 [cal/(mol K)]       44.571 [J/(mol K)]       0.01697609 [mEh/K]
  Correction Cp             0.000 [cal/(mol K)]        0.000 [J/(mol K)]       0.00000000 [mEh/K]

  ==> Thermochemistry Energy Analysis <==

  Raw electronic energy, E0
  Total E0, Electronic energy at well bottom at 0 [K]                 -113.31707981 [Eh]

  Zero-point energy, ZPE_vib = Sum_i nu_i / 2
    Electronic ZPE          0.000 [kcal/mol]        0.000 [kJ/mol]       0.00000000 [Eh]
    Translational ZPE       0.000 [kcal/mol]        0.000 [kJ/mol]       0.00000000 [Eh]
    Rotational ZPE          0.000 [kcal/mol]        0.000 [kJ/mol]       0.00000000 [Eh]
    Vibrational ZPE         3.607 [kcal/mol]       15.090 [kJ/mol]       0.00574744 [Eh]        1261.418 [cm^-1]
  Correction ZPE            3.607 [kcal/mol]       15.090 [kJ/mol]       0.00574744 [Eh]        1261.418 [cm^-1]
  Total ZPE, Electronic energy at 0 [K]                               -113.31133237 [Eh]

  Thermal Energy, E (includes ZPE)
    Electronic E            0.000 [kcal/mol]        0.000 [kJ/mol]       0.00000000 [Eh]
    Translational E         0.889 [kcal/mol]        3.718 [kJ/mol]       0.00141628 [Eh]
    Rotational E            0.592 [kcal/mol]        2.479 [kJ/mol]       0.00094418 [Eh]
    Vibrational E           4.318 [kcal/mol]       18.066 [kJ/mol]       0.00688106 [Eh]
  Correction E              5.799 [kcal/mol]       24.264 [kJ/mol]       0.00924152 [Eh]
  Total E, Electronic energy at  298.15 [K]                           -113.30783829 [Eh]

  Enthalpy, H_trans = E_trans + k_B * T
    Electronic H            0.000 [kcal/mol]        0.000 [kJ/mol]       0.00000000 [Eh]
    Translational H         1.481 [kcal/mol]        6.197 [kJ/mol]       0.00236046 [Eh]
    Rotational H            0.592 [kcal/mol]        2.479 [kJ/mol]       0.00094418 [Eh]
    Vibrational H           4.318 [kcal/mol]       18.066 [kJ/mol]       0.00688106 [Eh]
  Correction H              6.392 [kcal/mol]       26.743 [kJ/mol]       0.01018570 [Eh]
  Total H, Enthalpy at  298.15 [K]                                    -113.30689411 [Eh]

  Gibbs free energy, G = H - T * S
    Electronic G            0.000 [kcal/mol]        0.000 [kJ/mol]       0.00000000 [Eh]
    Translational G        -9.229 [kcal/mol]      -38.615 [kJ/mol]      -0.01470771 [Eh]
    Rotational G           -2.789 [kcal/mol]      -11.671 [kJ/mol]      -0.00444512 [Eh]
    Vibrational G           3.025 [kcal/mol]       12.656 [kJ/mol]       0.00482048 [Eh]
  Correction G             -8.994 [kcal/mol]      -37.630 [kJ/mol]      -0.01433235 [Eh]
  Total G, Free enthalpy at  298.15 [K]                               -113.33141216 [Eh]

*** Psi4 exiting successfully. Buy a developer a beer!
