                               Psi4 1.3.2 release

  ==> Input File <==

--------------------------------------------------------------------------
set basis  aug-cc-pVTZ
molecule {
0 1
   C       -1.22151       -0.69325        0.00000
   C       -1.21114        0.71122        0.00000
   C       -0.01037       -1.40452        0.00000
   C        0.01037        1.40452        0.00000
   C        1.21114       -0.71122        0.00000
   C        1.22151        0.69325        0.00000
   H       -2.17311       -1.23332        0.00000
   H       -2.15464        1.26533        0.00000
   H       -0.01848       -2.49865        0.00000
   H        0.01848        2.49865        0.00000
   H        2.15464       -1.26533        0.00000
   H        2.17311        1.23332        0.00000
}
energy('m06-2x')
frequencies('m06-2x')
--------------------------------------------------------------------------

    Molecular point group: c2h
  Charge       = 0
  Multiplicity = 1
  Basis Set: AUG-CC-PVTZ
    Blend: AUG-CC-PVTZ
  Basis Set: (AUG-CC-PVTZ AUX)
    Blend: AUG-CC-PVTZ-JKFIT
  @DF-RKS Final Energy:  -232.22229679864000
    Total Energy =                       -232.2222967986400022
    Molecular point group: c2h
  Basis Set: AUG-CC-PVTZ
    Blend: AUG-CC-PVTZ
  Basis Set: (AUG-CC-PVTZ AUX)
    Blend: AUG-CC-PVTZ-JKFIT
  @DF-RKS Final Energy:  -232.22229679644892
    Total Energy =                       -232.2222967964489158
  Basis Set: AUG-CC-PVTZ
    Blend: AUG-CC-PVTZ
  Basis Set: (AUG-CC-PVTZ AUX)
    Blend: AUG-CC-PVTZ-JKFIT
  Basis Set: AUG-CC-PVTZ
    Blend: AUG-CC-PVTZ
  Basis Set: (AUG-CC-PVTZ AUX)
    Blend: AUG-CC-PVTZ-JKFIT
  @DF-RKS Final Energy:  -232.22229680150127
    Total Energy =                       -232.2222968015013009
  Basis Set: AUG-CC-PVTZ
  @DF-RKS Final Energy:  -232.22241911506447
    Total Energy =                       -232.2224191150644970
  @DF-RKS Final Energy:  -232.22244836441655
    Total Energy =                       -232.2224483644165218
  @DF-RKS Final Energy:  -232.22239172517928
    Total Energy =                       -232.2223917251792784
  @DF-RKS Final Energy:  -232.22237668121707
    Total Energy =                       -232.2223766812170993
  @DF-RKS Final Energy:  -232.22240507459722
    Total Energy =                       -232.2224050745972477
  @DF-RKS Final Energy:  -232.22241801132364
    Total Energy =                       -232.2224180113236685
  @DF-RKS Final Energy:  -232.22238669926776
    Total Energy =                       -232.2223866992677301
  @DF-RKS Final Energy:  -232.22239021173036
    Total Energy =                       -232.2223902117303567
  @DF-RKS Final Energy:  -232.22235739765665
    Total Energy =                       -232.2223573976566513
  @DF-RKS Final Energy:  -232.22239993681382
    Total Energy =                       -232.2223999368138152
  @DF-RKS Final Energy:  -232.22233210201688
    Total Energy =                       -232.2223321020168783
  @DF-RKS Final Energy:  -232.22235868493840
    Total Energy =                       -232.2223586849383992
  @DF-RKS Final Energy:  -232.22237362062000
    Total Energy =                       -232.2223736206200329
  @DF-RKS Final Energy:  -232.22248841899383
    Total Energy =                       -232.2224884189938621
  @DF-RKS Final Energy:  -232.22235854831612
    Total Energy =                       -232.2223585483161230
  @DF-RKS Final Energy:  -232.22241493544200
    Total Energy =                       -232.2224149354419751
  @DF-RKS Final Energy:  -232.22235708637956
    Total Energy =                       -232.2223570863795601
  @DF-RKS Final Energy:  -232.22240320154026
    Total Energy =                       -232.2224032015402599
  @DF-RKS Final Energy:  -232.22229652510825
    Total Energy =                       -232.2222965251082485
  @DF-RKS Final Energy:  -232.22229639958590
    Total Energy =                       -232.2222963995858720
  @DF-RKS Final Energy:  -232.22229643210446
    Total Energy =                       -232.2222964321044572
  @DF-RKS Final Energy:  -232.22229638920930
    Total Energy =                       -232.2222963892092764
  @DF-RKS Final Energy:  -232.22229659125631
    Total Energy =                       -232.2222965912563097
  @DF-RKS Final Energy:  -232.22229659201980
    Total Energy =                       -232.2222965920198021
  @DF-RKS Final Energy:  -232.22229653348603
    Total Energy =                       -232.2222965334860021
  @DF-RKS Final Energy:  -232.22229641724053
    Total Energy =                       -232.2222964172405284
  @DF-RKS Final Energy:  -232.22229640427332
    Total Energy =                       -232.2222964042733224
  @DF-RKS Final Energy:  -232.22229565013069
    Total Energy =                       -232.2222956501307181
  @DF-RKS Final Energy:  -232.22229610384807
    Total Energy =                       -232.2222961038480662
  @DF-RKS Final Energy:  -232.22229548137622
    Total Energy =                       -232.2222954813762215
  @DF-RKS Final Energy:  -232.22229607435290
    Total Energy =                       -232.2222960743528972
  @DF-RKS Final Energy:  -232.22229431682470
    Total Energy =                       -232.2222943168246729
  @DF-RKS Final Energy:  -232.22229446343334
    Total Energy =                       -232.2222944634333430
  @DF-RKS Final Energy:  -232.22229362897318
    Total Energy =                       -232.2222936289731479
  @DF-RKS Final Energy:  -232.22229512962281
    Total Energy =                       -232.2222951296228075
  Basis Set: (AUG-CC-PVTZ AUX)
    Blend: AUG-CC-PVTZ-JKFIT
  Basis Set: AUG-CC-PVTZ
    Blend: AUG-CC-PVTZ
  Basis Set: (AUG-CC-PVTZ AUX)
    Blend: AUG-CC-PVTZ-JKFIT
  @DF-RKS Final Energy:  -232.22229451633632
    Total Energy =                       -232.2222945163362908
  Basis Set: AUG-CC-PVTZ
    Blend: AUG-CC-PVTZ
  Basis Set: (AUG-CC-PVTZ AUX)
    Blend: AUG-CC-PVTZ-JKFIT
    Molecular point group: cs
  Charge       = 0
  Multiplicity = 1
  Basis Set: AUG-CC-PVTZ
    Blend: AUG-CC-PVTZ
  Basis Set: (AUG-CC-PVTZ AUX)
    Blend: AUG-CC-PVTZ-JKFIT

    Orbital Energies [Eh]
    ---------------------

    Doubly Occupied:

       1Ap   -10.550397     2Ap   -10.550041     3Ap   -10.550015
       4Ap   -10.549212     5Ap   -10.549194     6Ap   -10.548852
       7Ap    -0.955475     8Ap    -0.841091     9Ap    -0.841083
      10Ap    -0.684840    11Ap    -0.684826    12Ap    -0.596956
      13Ap    -0.534535    14Ap    -0.511070    15Ap    -0.487209
      16Ap    -0.487195     1App   -0.437568    17Ap    -0.403366
      18Ap    -0.403357     2App   -0.308557     3App   -0.308549

  @DF-RKS Final Energy:  -232.22229423935323

   => Energetics <=

    Nuclear Repulsion Energy =            202.0133184684007119
    One-Electron Energy =                -711.1396531665395742
    Two-Electron Energy =                 293.6261758703291775
    DFT Exchange-Correlation Energy =     -16.7221354115435474
    Empirical Dispersion Energy =           0.0000000000000000
    VV10 Nonlocal Energy =                  0.0000000000000000
    Total Energy =                       -232.2222942393532321

  Dipole Moment: [D]
     X:    -0.0008      Y:    -0.0013      Z:     0.0000     Total:     0.0016

    Molecular point group: cs

    Geometry (in Angstrom), charge = 0, multiplicity = 1:

       Center              X                  Y                   Z               Mass
    ------------   -----------------  -----------------  -----------------  -----------------
         C           -1.221510000000    -0.693250000000     0.000000000000    12.000000000000
         C           -1.211140000000     0.711220000000     0.000000000000    12.000000000000
         C           -0.010370000000    -1.404520000000     0.000000000000    12.000000000000
         C            0.010370000000     1.404520000000     0.000000000000    12.000000000000
         C            1.211140000000    -0.711220000000     0.000000000000    12.000000000000
         C            1.221510000000     0.693250000000     0.000000000000    12.000000000000
         H           -2.173110000000    -1.233320000000     0.000000000000     1.007825032230
         H           -2.154640000000     1.264012202829     0.000000000000     1.007825032230
         H           -0.018480000000    -2.497332202829     0.000000000000     1.007825032230
         H            0.018480000000     2.499967797171     0.000000000000     1.007825032230
         H            2.154640000000    -1.266647797171     0.000000000000     1.007825032230
         H            2.173110000000     1.233320000000     0.000000000000     1.007825032230

  Basis Set: AUG-CC-PVTZ
    Blend: AUG-CC-PVTZ
  Basis Set: (AUG-CC-PVTZ AUX)
    Blend: AUG-CC-PVTZ-JKFIT

  -Total Gradient:
     Atom            X                  Y                   Z
    ------   -----------------  -----------------  -----------------
       1       -0.006153712080    -0.003430392466     0.000000000000
       2       -0.006284382977     0.003840099009     0.000000000000
       3       -0.000003613345    -0.007830098432     0.000000000000
       4        0.000068661224     0.006216954648     0.000000000000
       5        0.005758908049    -0.003250514305     0.000000000000
       6        0.006002721690     0.003430458501     0.000000000000
       7       -0.007548978062    -0.004321558034     0.000000000000
       8       -0.007174315155     0.004130993517     0.000000000000
       9       -0.000057741173    -0.007839987745     0.000000000000
      10        0.000058035008     0.009526014627     0.000000000000
      11        0.007777970456    -0.004782871249     0.000000000000
      12        0.007558152012     0.004315015975     0.000000000000

  Vibration                       7                   8                   9
  Freq [cm^-1]                 439.2433            440.1593            556.7477
  Irrep                           Au                  Au                  Bg
  Reduced mass [u]              2.9532              2.9693              2.9083
  Force const [mDyne/A]         0.3357              0.3389              0.5311

  Vibration                       10                  11                  12
  Freq [cm^-1]                 605.6874            624.2009            765.8248
  Irrep                           Ag                  Ag                  Au
  Reduced mass [u]              6.1044              5.6866              1.0849
  Force const [mDyne/A]         1.3194              1.3054              0.3749

  Vibration                       13                  14                  15
  Freq [cm^-1]                 923.1971            925.2936            981.0657
  Irrep                           Bg                  Bg                  Ag
  Reduced mass [u]              1.2479              1.2479              3.6544
  Force const [mDyne/A]         0.6266              0.6295              2.0724

  Vibration                       16                  17                  18
  Freq [cm^-1]                1013.6780           1035.3368           1036.1445
  Irrep                           Bu                  Bg                  Au
  Reduced mass [u]              6.5098              1.3665              1.3570
  Force const [mDyne/A]         3.9411              0.8630              0.8584

  Vibration                       19                  20                  21
  Freq [cm^-1]                1037.6476           1054.2410           1054.4516
  Irrep                           Au                  Bu                  Bu
  Reduced mass [u]              1.3534              1.8097              1.8106
  Force const [mDyne/A]         0.8586              1.1851              1.1861

  Vibration                       22                  23                  24
  Freq [cm^-1]                1084.0092           1137.6202           1230.0786
  Irrep                           Ag                  Bu                  Ag
  Reduced mass [u]              1.4213              1.7351              1.1615
  Force const [mDyne/A]         0.9840              1.3230              1.0354

  Vibration                       25                  26                  27
  Freq [cm^-1]                1271.3654           1361.1802           1505.2165
  Irrep                           Bu                  Ag                  Bu
  Reduced mass [u]              2.0030              1.2560              1.8814
  Force const [mDyne/A]         1.9076              1.3711              2.5114

  Vibration                       28                  29                  30
  Freq [cm^-1]                1505.3544           1601.6455           1633.3117
  Irrep                           Bu                  Ag                  Ag
  Reduced mass [u]              1.8784              4.8731              3.9699
  Force const [mDyne/A]         2.5080              7.3652              6.2397

  Vibration                       31                  32                  33
  Freq [cm^-1]                3082.5628           3092.1007           3092.4696
  Irrep                           Bu                  Ag                  Ag
  Reduced mass [u]              1.0847              1.0883              1.0881
  Force const [mDyne/A]         6.0725              6.1305              6.1309

  Vibration                       34                  35                  36
  Freq [cm^-1]                3107.4622           3108.1444           3118.1433
  Irrep                           Bu                  Bu                  Ag
  Reduced mass [u]              1.0953              1.0953              1.0988
  Force const [mDyne/A]         6.2315              6.2341              6.2942

  ==> Thermochemistry Components <==

  Entropy, S
    Electronic S            0.000 [cal/(mol K)]        0.000 [J/(mol K)]       0.00000000 [mEh/K] (multiplicity = 1)
    Translational S        38.979 [cal/(mol K)]      163.089 [J/(mol K)]       0.06211726 [mEh/K] (mol. weight = 78.0470 [u], P = 101325.00 [Pa])
    Rotational S           24.318 [cal/(mol K)]      101.746 [J/(mol K)]       0.03875307 [mEh/K] (symmetry no. = 2)
    Vibrational S           4.354 [cal/(mol K)]       18.215 [J/(mol K)]       0.00693775 [mEh/K]
  Total S                  67.651 [cal/(mol K)]      283.050 [J/(mol K)]       0.10780808 [mEh/K]
  Correction S              0.000 [cal/(mol K)]        0.000 [J/(mol K)]       0.00000000 [mEh/K]

  Constant volume heat capacity, Cv
    Electronic Cv           0.000 [cal/(mol K)]        0.000 [J/(mol K)]       0.00000000 [mEh/K]
    Translational Cv        2.981 [cal/(mol K)]       12.472 [J/(mol K)]       0.00475022 [mEh/K]
    Rotational Cv           2.981 [cal/(mol K)]       12.472 [J/(mol K)]       0.00475022 [mEh/K]
    Vibrational Cv         11.217 [cal/(mol K)]       46.933 [J/(mol K)]       0.01787596 [mEh/K]
  Total Cv                 17.179 [cal/(mol K)]       71.877 [J/(mol K)]       0.02737639 [mEh/K]
  Correction Cv             0.000 [cal/(mol K)]        0.000 [J/(mol K)]       0.00000000 [mEh/K]

  Constant pressure heat capacity, Cp
    Electronic Cp           0.000 [cal/(mol K)]        0.000 [J/(mol K)]       0.00000000 [mEh/K]
    Translational Cp        4.968 [cal/(mol K)]       20.786 [J/(mol K)]       0.00791703 [mEh/K]
    Rotational Cp           2.981 [cal/(mol K)]       12.472 [J/(mol K)]       0.00475022 [mEh/K]
    Vibrational Cp         11.217 [cal/(mol K)]       46.933 [J/(mol K)]       0.01787596 [mEh/K]
  Total Cp                 19.166 [cal/(mol K)]       80.191 [J/(mol K)]       0.03054320 [mEh/K]
  Correction Cp             0.000 [cal/(mol K)]        0.000 [J/(mol K)]       0.00000000 [mEh/K]

  ==> Thermochemistry Energy Analysis <==

  Raw electronic energy, E0
  Total E0, Electronic energy at well bottom at 0 [K]                 -232.22229680 [Eh]

  Zero-point energy, ZPE_vib = Sum_i nu_i / 2
    Electronic ZPE          0.000 [kcal/mol]        0.000 [kJ/mol]       0.00000000 [Eh]
    Translational ZPE       0.000 [kcal/mol]        0.000 [kJ/mol]       0.00000000 [Eh]
    Rotational ZPE          0.000 [kcal/mol]        0.000 [kJ/mol]       0.00000000 [Eh]
    Vibrational ZPE        62.077 [kcal/mol]      259.731 [kJ/mol]       0.09892620 [Eh]       21711.792 [cm^-1]
  Correction ZPE           62.077 [kcal/mol]      259.731 [kJ/mol]       0.09892620 [Eh]       21711.792 [cm^-1]
  Total ZPE, Electronic energy at 0 [K]                               -232.12337060 [Eh]

  Thermal Energy, E (includes ZPE)
    Electronic E            0.000 [kcal/mol]        0.000 [kJ/mol]       0.00000000 [Eh]
    Translational E         0.889 [kcal/mol]        3.718 [kJ/mol]       0.00141628 [Eh]
    Rotational E            0.889 [kcal/mol]        3.718 [kJ/mol]       0.00141628 [Eh]
    Vibrational E          63.051 [kcal/mol]      263.806 [kJ/mol]       0.10047839 [Eh]
  Correction E             64.829 [kcal/mol]      271.243 [kJ/mol]       0.10331094 [Eh]
  Total E, Electronic energy at  298.15 [K]                           -232.11898586 [Eh]

  Enthalpy, H_trans = E_trans + k_B * T
    Electronic H            0.000 [kcal/mol]        0.000 [kJ/mol]       0.00000000 [Eh]
    Translational H         1.481 [kcal/mol]        6.197 [kJ/mol]       0.00236046 [Eh]
    Rotational H            0.889 [kcal/mol]        3.718 [kJ/mol]       0.00141628 [Eh]
    Vibrational H          63.051 [kcal/mol]      263.806 [kJ/mol]       0.10047839 [Eh]
  Correction H             65.421 [kcal/mol]      273.722 [kJ/mol]       0.10425513 [Eh]
  Total H, Enthalpy at  298.15 [K]                                    -232.11804168 [Eh]

  Gibbs free energy, G = H - T * S
    Electronic G            0.000 [kcal/mol]        0.000 [kJ/mol]       0.00000000 [Eh]
    Translational G       -10.140 [kcal/mol]      -42.428 [kJ/mol]      -0.01615980 [Eh]
    Rotational G           -6.362 [kcal/mol]      -26.617 [kJ/mol]      -0.01013795 [Eh]
    Vibrational G          61.753 [kcal/mol]      258.375 [kJ/mol]       0.09840990 [Eh]
  Correction G             45.251 [kcal/mol]      189.330 [kJ/mol]       0.07211215 [Eh]
  Total G, Free enthalpy at  298.15 [K]                               -232.15018465 [Eh]

*** Psi4 exiting successfully. Buy a developer a beer!
