                               Psi4 1.3.2 release

  ==> Input File <==

--------------------------------------------------------------------------
set basis  aug-cc-pVDZ
molecule {
0 1
   O        0.00000        0.00000        0.49152
   C        0.00000        0.00000       -0.65516
}
energy('m06-2x')
frequencies('m06-2x')
--------------------------------------------------------------------------

    Molecular point group: c2v
  Charge       = 0
  Multiplicity = 1
  Basis Set: AUG-CC-PVDZ
    Blend: AUG-CC-PVDZ
  Basis Set: (AUG-CC-PVDZ AUX)
    Blend: AUG-CC-PVDZ-JKFIT
  @DF-RKS Final Energy:  -113.29466052828330
    Total Energy =                       -113.2946605282833019
    Molecular point group: c2v
  Basis Set: AUG-CC-PVDZ
    Blend: AUG-CC-PVDZ
  Basis Set: (AUG-CC-PVDZ AUX)
    Blend: AUG-CC-PVDZ-JKFIT
  @DF-RKS Final Energy:  -113.29466052841067
    Total Energy =                       -113.2946605284106738
  Basis Set: AUG-CC-PVDZ
    Blend: AUG-CC-PVDZ
  Basis Set: (AUG-CC-PVDZ AUX)
    Blend: AUG-CC-PVDZ-JKFIT
  Basis Set: AUG-CC-PVDZ
    Blend: AUG-CC-PVDZ
  Basis Set: (AUG-CC-PVDZ AUX)
    Blend: AUG-CC-PVDZ-JKFIT
  @DF-RKS Final Energy:  -113.29466052841067
    Total Energy =                       -113.2946605284106738
  Basis Set: AUG-CC-PVDZ
  @DF-RKS Final Energy:  -113.29474132248114
    Total Energy =                       -113.2947413224811442
  @DF-RKS Final Energy:  -113.29457547852999
    Total Energy =                       -113.2945754785299926
  Basis Set: (AUG-CC-PVDZ AUX)
    Blend: AUG-CC-PVDZ-JKFIT
  Basis Set: AUG-CC-PVDZ
    Blend: AUG-CC-PVDZ
  Basis Set: (AUG-CC-PVDZ AUX)
    Blend: AUG-CC-PVDZ-JKFIT
  @DF-RKS Final Energy:  -113.29466049186971
    Total Energy =                       -113.2946604918697062
  Basis Set: AUG-CC-PVDZ
    Blend: AUG-CC-PVDZ
  Basis Set: (AUG-CC-PVDZ AUX)
    Blend: AUG-CC-PVDZ-JKFIT
    Molecular point group: cs
  Charge       = 0
  Multiplicity = 1
  Basis Set: AUG-CC-PVDZ
    Blend: AUG-CC-PVDZ
  Basis Set: (AUG-CC-PVDZ AUX)
    Blend: AUG-CC-PVDZ-JKFIT

    Orbital Energies [Eh]
    ---------------------

    Doubly Occupied:

       1Ap   -19.755644     2Ap   -10.679379     3Ap    -1.286483
       4Ap    -0.674454     5Ap    -0.548667     1App   -0.548667
       6Ap    -0.451540

  @DF-RKS Final Energy:  -113.29466049187815

   => Energetics <=

    Nuclear Repulsion Energy =             22.1513379928885605
    One-Electron Energy =                -197.4870524259387139
    Two-Electron Energy =                  68.6987691105710496
    DFT Exchange-Correlation Energy =      -6.6577151693990411
    Empirical Dispersion Energy =           0.0000000000000000
    VV10 Nonlocal Energy =                  0.0000000000000000
    Total Energy =                       -113.2946604918781475

  Dipole Moment: [D]
     X:     0.0000      Y:     0.0000      Z:    -0.0270     Total:     0.0270

    Molecular point group: cs

    Geometry (in Angstrom), charge = 0, multiplicity = 1:

       Center              X                  Y                   Z               Mass
    ------------   -----------------  -----------------  -----------------  -----------------
         O            0.000000000000    -0.000433142923     0.491523556581    15.994914619570
         C            0.000000000000     0.000577340340    -0.655156443419    12.000000000000

  Basis Set: AUG-CC-PVDZ
    Blend: AUG-CC-PVDZ
  Basis Set: (AUG-CC-PVDZ AUX)
    Blend: AUG-CC-PVDZ-JKFIT

  -Total Gradient:
     Atom            X                  Y                   Z
    ------   -----------------  -----------------  -----------------
       1        0.000000000000    -0.000038229399     0.043382101336
       2        0.000000000000     0.000038202195    -0.043351230857

  Vibration                       4                   5                   6
  Freq [cm^-1]                 277.7210            277.7210           2119.4023
  Irrep                           B1                  B2                  A1
  Reduced mass [u]             13.4388             13.4388             13.4388
  Force const [mDyne/A]         0.6107              0.6107             35.5661

  ==> Thermochemistry Components <==

  Entropy, S
    Electronic S            0.000 [cal/(mol K)]        0.000 [J/(mol K)]       0.00000000 [mEh/K] (multiplicity = 1)
    Translational S        35.923 [cal/(mol K)]      150.302 [J/(mol K)]       0.05724692 [mEh/K] (mol. weight = 27.9949 [u], P = 101325.00 [Pa])
    Rotational S           11.343 [cal/(mol K)]       47.458 [J/(mol K)]       0.01807582 [mEh/K] (symmetry no. = 1)
    Vibrational S           3.096 [cal/(mol K)]       12.954 [J/(mol K)]       0.00493401 [mEh/K]
  Total S                  50.362 [cal/(mol K)]      210.714 [J/(mol K)]       0.08025676 [mEh/K]
  Correction S              0.000 [cal/(mol K)]        0.000 [J/(mol K)]       0.00000000 [mEh/K]

  Constant volume heat capacity, Cv
    Electronic Cv           0.000 [cal/(mol K)]        0.000 [J/(mol K)]       0.00000000 [mEh/K]
    Translational Cv        2.981 [cal/(mol K)]       12.472 [J/(mol K)]       0.00475022 [mEh/K]
    Rotational Cv           1.987 [cal/(mol K)]        8.314 [J/(mol K)]       0.00316681 [mEh/K]
    Vibrational Cv          3.437 [cal/(mol K)]       14.380 [J/(mol K)]       0.00547703 [mEh/K]
  Total Cv                  8.405 [cal/(mol K)]       35.166 [J/(mol K)]       0.01339406 [mEh/K]
  Correction Cv             0.000 [cal/(mol K)]        0.000 [J/(mol K)]       0.00000000 [mEh/K]

  Constant pressure heat capacity, Cp
    Electronic Cp           0.000 [cal/(mol K)]        0.000 [J/(mol K)]       0.00000000 [mEh/K]
    Translational Cp        4.968 [cal/(mol K)]       20.786 [J/(mol K)]       0.00791703 [mEh/K]
    Rotational Cp           1.987 [cal/(mol K)]        8.314 [J/(mol K)]       0.00316681 [mEh/K]
    Vibrational Cp          3.437 [cal/(mol K)]       14.380 [J/(mol K)]       0.00547703 [mEh/K]
  Total Cp                 10.392 [cal/(mol K)]       43.481 [J/(mol K)]       0.01656087 [mEh/K]
  Correction Cp             0.000 [cal/(mol K)]        0.000 [J/(mol K)]       0.00000000 [mEh/K]

  ==> Thermochemistry Energy Analysis <==

  Raw electronic energy, E0
  Total E0, Electronic energy at well bottom at 0 [K]                 -113.29466053 [Eh]

  Zero-point energy, ZPE_vib = Sum_i nu_i / 2
    Electronic ZPE          0.000 [kcal/mol]        0.000 [kJ/mol]       0.00000000 [Eh]
    Translational ZPE       0.000 [kcal/mol]        0.000 [kJ/mol]       0.00000000 [Eh]
    Rotational ZPE          0.000 [kcal/mol]        0.000 [kJ/mol]       0.00000000 [Eh]
    Vibrational ZPE         3.824 [kcal/mol]       15.999 [kJ/mol]       0.00609374 [Eh]        1337.422 [cm^-1]
  Correction ZPE            3.824 [kcal/mol]       15.999 [kJ/mol]       0.00609374 [Eh]        1337.422 [cm^-1]
  Total ZPE, Electronic energy at 0 [K]                               -113.28856678 [Eh]

  Thermal Energy, E (includes ZPE)
    Electronic E            0.000 [kcal/mol]        0.000 [kJ/mol]       0.00000000 [Eh]
    Translational E         0.889 [kcal/mol]        3.718 [kJ/mol]       0.00141628 [Eh]
    Rotational E            0.592 [kcal/mol]        2.479 [kJ/mol]       0.00094418 [Eh]
    Vibrational E           4.387 [kcal/mol]       18.356 [kJ/mol]       0.00699160 [Eh]
  Correction E              5.869 [kcal/mol]       24.554 [kJ/mol]       0.00935206 [Eh]
  Total E, Electronic energy at  298.15 [K]                           -113.28530847 [Eh]

  Enthalpy, H_trans = E_trans + k_B * T
    Electronic H            0.000 [kcal/mol]        0.000 [kJ/mol]       0.00000000 [Eh]
    Translational H         1.481 [kcal/mol]        6.197 [kJ/mol]       0.00236046 [Eh]
    Rotational H            0.592 [kcal/mol]        2.479 [kJ/mol]       0.00094418 [Eh]
    Vibrational H           4.387 [kcal/mol]       18.356 [kJ/mol]       0.00699160 [Eh]
  Correction H              6.461 [kcal/mol]       27.033 [kJ/mol]       0.01029625 [Eh]
  Total H, Enthalpy at  298.15 [K]                                    -113.28436428 [Eh]

  Gibbs free energy, G = H - T * S
    Electronic G            0.000 [kcal/mol]        0.000 [kJ/mol]       0.00000000 [Eh]
    Translational G        -9.229 [kcal/mol]      -38.615 [kJ/mol]      -0.01470771 [Eh]
    Rotational G           -2.789 [kcal/mol]      -11.671 [kJ/mol]      -0.00444512 [Eh]
    Vibrational G           3.464 [kcal/mol]       14.494 [kJ/mol]       0.00552053 [Eh]
  Correction G             -8.554 [kcal/mol]      -35.792 [kJ/mol]      -0.01363231 [Eh]
  Total G, Free enthalpy at  298.15 [K]                               -113.30829283 [Eh]

*** Psi4 exiting successfully. Buy a developer a beer!
