                               Psi4 1.3.2 release

  ==> Input File <==

--------------------------------------------------------------------------
set basis  aug-cc-pVDZ
molecule {
0 1
   C       -1.22151       -0.69325        0.00000
   C       -1.21114        0.71122        0.00000
   C       -0.01037       -1.40452        0.00000
   C        0.01037        1.40452        0.00000
   C        1.21114       -0.71122        0.00000
   C        1.22151        0.69325        0.00000
   H       -2.17311       -1.23332        0.00000
   H       -2.15464        1.26533        0.00000
   H       -0.01848       -2.49865        0.00000
   H        0.01848        2.49865        0.00000
   H        2.15464       -1.26533        0.00000
   H        2.17311        1.23332        0.00000
}
energy('m06-2x')
frequencies('m06-2x')
--------------------------------------------------------------------------

    Molecular point group: c2h
  Charge       = 0
  Multiplicity = 1
  Basis Set: AUG-CC-PVDZ
    Blend: AUG-CC-PVDZ
  Basis Set: (AUG-CC-PVDZ AUX)
    Blend: AUG-CC-PVDZ-JKFIT
  @DF-RKS Final Energy:  -232.17136465750349
    Total Energy =                       -232.1713646575034602
    Molecular point group: c2h
  Basis Set: AUG-CC-PVDZ
    Blend: AUG-CC-PVDZ
  Basis Set: (AUG-CC-PVDZ AUX)
    Blend: AUG-CC-PVDZ-JKFIT
  @DF-RKS Final Energy:  -232.17136466449369
    Total Energy =                       -232.1713646644936944
  Basis Set: AUG-CC-PVDZ
    Blend: AUG-CC-PVDZ
  Basis Set: (AUG-CC-PVDZ AUX)
    Blend: AUG-CC-PVDZ-JKFIT
  Basis Set: AUG-CC-PVDZ
    Blend: AUG-CC-PVDZ
  Basis Set: (AUG-CC-PVDZ AUX)
    Blend: AUG-CC-PVDZ-JKFIT
  @DF-RKS Final Energy:  -232.17136466174563
    Total Energy =                       -232.1713646617456561
  Basis Set: AUG-CC-PVDZ
  @DF-RKS Final Energy:  -232.17147419938016
    Total Energy =                       -232.1714741993801283
  @DF-RKS Final Energy:  -232.17149893415228
    Total Energy =                       -232.1714989341522823
  @DF-RKS Final Energy:  -232.17146439068492
    Total Energy =                       -232.1714643906849176
  @DF-RKS Final Energy:  -232.17142607353691
    Total Energy =                       -232.1714260735369066
  @DF-RKS Final Energy:  -232.17146025421528
    Total Energy =                       -232.1714602542152761
  @DF-RKS Final Energy:  -232.17146891017475
    Total Energy =                       -232.1714689101747240
  @DF-RKS Final Energy:  -232.17146167549743
    Total Energy =                       -232.1714616754974259
  @DF-RKS Final Energy:  -232.17145551397277
    Total Energy =                       -232.1714555139727736
  @DF-RKS Final Energy:  -232.17141317096821
    Total Energy =                       -232.1714131709681794
  @DF-RKS Final Energy:  -232.17145341498806
    Total Energy =                       -232.1714534149880649
  @DF-RKS Final Energy:  -232.17137634527580
    Total Energy =                       -232.1713763452758030
  @DF-RKS Final Energy:  -232.17139696334803
    Total Energy =                       -232.1713969633480588
  @DF-RKS Final Energy:  -232.17146005038572
    Total Energy =                       -232.1714600503857184
  @DF-RKS Final Energy:  -232.17150736962699
    Total Energy =                       -232.1715073696269656
  @DF-RKS Final Energy:  -232.17144977324824
    Total Energy =                       -232.1714497732482130
  @DF-RKS Final Energy:  -232.17145900424069
    Total Energy =                       -232.1714590042406883
  @DF-RKS Final Energy:  -232.17144419991641
    Total Energy =                       -232.1714441999164364
  @DF-RKS Final Energy:  -232.17140719002649
    Total Energy =                       -232.1714071900264571
  @DF-RKS Final Energy:  -232.17136435022496
    Total Energy =                       -232.1713643502249340
  @DF-RKS Final Energy:  -232.17136422790421
    Total Energy =                       -232.1713642279042347
  @DF-RKS Final Energy:  -232.17136432754316
    Total Energy =                       -232.1713643275431593
  @DF-RKS Final Energy:  -232.17136420593701
    Total Energy =                       -232.1713642059369818
  @DF-RKS Final Energy:  -232.17136445472960
    Total Energy =                       -232.1713644547295701
  @DF-RKS Final Energy:  -232.17136445157925
    Total Energy =                       -232.1713644515792510
  @DF-RKS Final Energy:  -232.17136441854535
    Total Energy =                       -232.1713644185453518
  @DF-RKS Final Energy:  -232.17136429495812
    Total Energy =                       -232.1713642949580958
  @DF-RKS Final Energy:  -232.17136429244584
    Total Energy =                       -232.1713642924458156
  @DF-RKS Final Energy:  -232.17136329436519
    Total Energy =                       -232.1713632943651930
  @DF-RKS Final Energy:  -232.17136409494566
    Total Energy =                       -232.1713640949456874
  @DF-RKS Final Energy:  -232.17136308659116
    Total Energy =                       -232.1713630865911284
  @DF-RKS Final Energy:  -232.17136408378431
    Total Energy =                       -232.1713640837842831
  @DF-RKS Final Energy:  -232.17136181739559
    Total Energy =                       -232.1713618173955638
  @DF-RKS Final Energy:  -232.17136250132717
    Total Energy =                       -232.1713625013271951
  @DF-RKS Final Energy:  -232.17136102780822
    Total Energy =                       -232.1713610278081887
  @DF-RKS Final Energy:  -232.17136326397483
    Total Energy =                       -232.1713632639748255
  Basis Set: (AUG-CC-PVDZ AUX)
    Blend: AUG-CC-PVDZ-JKFIT
  Basis Set: AUG-CC-PVDZ
    Blend: AUG-CC-PVDZ
  Basis Set: (AUG-CC-PVDZ AUX)
    Blend: AUG-CC-PVDZ-JKFIT
  @DF-RKS Final Energy:  -232.17136198872896
    Total Energy =                       -232.1713619887289326
  Basis Set: AUG-CC-PVDZ
    Blend: AUG-CC-PVDZ
  Basis Set: (AUG-CC-PVDZ AUX)
    Blend: AUG-CC-PVDZ-JKFIT
    Molecular point group: cs
  Charge       = 0
  Multiplicity = 1
  Basis Set: AUG-CC-PVDZ
    Blend: AUG-CC-PVDZ
  Basis Set: (AUG-CC-PVDZ AUX)
    Blend: AUG-CC-PVDZ-JKFIT

    Orbital Energies [Eh]
    ---------------------

    Doubly Occupied:

       1Ap   -10.558122     2Ap   -10.557831     3Ap   -10.557804
       4Ap   -10.557105     5Ap   -10.557087     6Ap   -10.556734
       7Ap    -0.954752     8Ap    -0.840321     9Ap    -0.840316
      10Ap    -0.683842    11Ap    -0.683826    12Ap    -0.595487
      13Ap    -0.533271    14Ap    -0.509325    15Ap    -0.485647
      16Ap    -0.485634     1App   -0.435410    17Ap    -0.401389
      18Ap    -0.401385     2App   -0.306739     3App   -0.306732

  @DF-RKS Final Energy:  -232.17136230329638

   => Energetics <=

    Nuclear Repulsion Energy =            202.0133184684007119
    One-Electron Energy =                -710.9836043376144517
    Two-Electron Energy =                 293.5186962637540660
    DFT Exchange-Correlation Energy =     -16.7197726978367136
    Empirical Dispersion Energy =           0.0000000000000000
    VV10 Nonlocal Energy =                  0.0000000000000000
    Total Energy =                       -232.1713623032963767

  Dipole Moment: [D]
     X:    -0.0008      Y:    -0.0014      Z:     0.0000     Total:     0.0016

    Molecular point group: cs

    Geometry (in Angstrom), charge = 0, multiplicity = 1:

       Center              X                  Y                   Z               Mass
    ------------   -----------------  -----------------  -----------------  -----------------
         C           -1.221510000000    -0.693250000000     0.000000000000    12.000000000000
         C           -1.211140000000     0.711220000000     0.000000000000    12.000000000000
         C           -0.010370000000    -1.404520000000     0.000000000000    12.000000000000
         C            0.010370000000     1.404520000000     0.000000000000    12.000000000000
         C            1.211140000000    -0.711220000000     0.000000000000    12.000000000000
         C            1.221510000000     0.693250000000     0.000000000000    12.000000000000
         H           -2.173110000000    -1.233320000000     0.000000000000     1.007825032230
         H           -2.154640000000     1.264012202829     0.000000000000     1.007825032230
         H           -0.018480000000    -2.497332202829     0.000000000000     1.007825032230
         H            0.018480000000     2.499967797171     0.000000000000     1.007825032230
         H            2.154640000000    -1.266647797171     0.000000000000     1.007825032230
         H            2.173110000000     1.233320000000     0.000000000000     1.007825032230

  Basis Set: AUG-CC-PVDZ
    Blend: AUG-CC-PVDZ
  Basis Set: (AUG-CC-PVDZ AUX)
    Blend: AUG-CC-PVDZ-JKFIT

  -Total Gradient:
     Atom            X                  Y                   Z
    ------   -----------------  -----------------  -----------------
       1       -0.005064737938    -0.002813375731     0.000000000000
       2       -0.005243589156     0.003232561980     0.000000000000
       3        0.000009425438    -0.006633151712     0.000000000000
       4        0.000056501336     0.004929720900     0.000000000000
       5        0.004672828052    -0.002626509557     0.000000000000
       6        0.004915852196     0.002816505320     0.000000000000
       7       -0.002952494243    -0.001726609852     0.000000000000
       8       -0.002598470746     0.001478860180     0.000000000000
       9       -0.000013018504    -0.002530869055     0.000000000000
      10        0.000014794790     0.004300647962     0.000000000000
      11        0.003245964842    -0.002141343716     0.000000000000
      12        0.002958814096     0.001719780036     0.000000000000

  Vibration                       7                   8                   9
  Freq [cm^-1]                 427.5388            429.2666            591.1261
  Irrep                           Au                  Au                  Ag
  Reduced mass [u]              2.8470              2.8721              5.0982
  Force const [mDyne/A]         0.3066              0.3118              1.0496

  Vibration                       10                  11                  12
  Freq [cm^-1]                 595.3602            715.7114            735.7434
  Irrep                           Ag                  Au                  Bg
  Reduced mass [u]              5.8905              1.0849              3.2928
  Force const [mDyne/A]         1.2302              0.3274              1.0502

  Vibration                       13                  14                  15
  Freq [cm^-1]                 887.4385            890.7289            959.7872
  Irrep                           Bg                  Bg                  Ag
  Reduced mass [u]              1.2480              1.2479              1.9928
  Force const [mDyne/A]         0.5791              0.5833              1.0816

  Vibration                       16                  17                  18
  Freq [cm^-1]                1008.3492           1010.2282           1012.8001
  Irrep                           Bu                  Au                  Au
  Reduced mass [u]              6.4905              1.3805              1.3747
  Force const [mDyne/A]         3.8882              0.8301              0.8308

  Vibration                       19                  20                  21
  Freq [cm^-1]                1038.9543           1055.0604           1055.7230
  Irrep                           Bg                  Bu                  Bu
  Reduced mass [u]              1.2953              1.6574              1.6607
  Force const [mDyne/A]         0.8238              1.0870              1.0906

  Vibration                       22                  23                  24
  Freq [cm^-1]                1067.1727           1145.9768           1226.8917
  Irrep                           Ag                  Bu                  Ag
  Reduced mass [u]              2.0322              1.1852              1.1422
  Force const [mDyne/A]         1.3636              0.9171              1.0130

  Vibration                       25                  26                  27
  Freq [cm^-1]                1299.6347           1332.1867           1492.7754
  Irrep                           Bu                  Ag                  Bu
  Reduced mass [u]              4.3137              1.2592              2.0718
  Force const [mDyne/A]         4.2928              1.3167              2.7201

  Vibration                       28                  29                  30
  Freq [cm^-1]                1493.0920           1624.9345           1663.9894
  Irrep                           Bu                  Ag                  Ag
  Reduced mass [u]              2.0726              5.8516              4.3032
  Force const [mDyne/A]         2.7223              9.1033              7.0201

  Vibration                       31                  32                  33
  Freq [cm^-1]                3163.0923           3164.4255           3173.0066
  Irrep                           Bu                  Ag                  Ag
  Reduced mass [u]              1.0852              1.0902              1.0872
  Force const [mDyne/A]         6.3969              6.4320              6.4493

  Vibration                       34                  35                  36
  Freq [cm^-1]                3184.0286           3184.1435           3194.3571
  Irrep                           Bu                  Bu                  Ag
  Reduced mass [u]              1.0964              1.0964              1.0995
  Force const [mDyne/A]         6.5491              6.5497              6.6104

  ==> Thermochemistry Components <==

  Entropy, S
    Electronic S            0.000 [cal/(mol K)]        0.000 [J/(mol K)]       0.00000000 [mEh/K] (multiplicity = 1)
    Translational S        38.979 [cal/(mol K)]      163.089 [J/(mol K)]       0.06211726 [mEh/K] (mol. weight = 78.0470 [u], P = 101325.00 [Pa])
    Rotational S           24.318 [cal/(mol K)]      101.746 [J/(mol K)]       0.03875307 [mEh/K] (symmetry no. = 2)
    Vibrational S           4.353 [cal/(mol K)]       18.215 [J/(mol K)]       0.00693759 [mEh/K]
  Total S                  67.650 [cal/(mol K)]      283.050 [J/(mol K)]       0.10780792 [mEh/K]
  Correction S              0.000 [cal/(mol K)]        0.000 [J/(mol K)]       0.00000000 [mEh/K]

  Constant volume heat capacity, Cv
    Electronic Cv           0.000 [cal/(mol K)]        0.000 [J/(mol K)]       0.00000000 [mEh/K]
    Translational Cv        2.981 [cal/(mol K)]       12.472 [J/(mol K)]       0.00475022 [mEh/K]
    Rotational Cv           2.981 [cal/(mol K)]       12.472 [J/(mol K)]       0.00475022 [mEh/K]
    Vibrational Cv         11.265 [cal/(mol K)]       47.132 [J/(mol K)]       0.01795181 [mEh/K]
  Total Cv                 17.227 [cal/(mol K)]       72.076 [J/(mol K)]       0.02745224 [mEh/K]
  Correction Cv             0.000 [cal/(mol K)]        0.000 [J/(mol K)]       0.00000000 [mEh/K]

  Constant pressure heat capacity, Cp
    Electronic Cp           0.000 [cal/(mol K)]        0.000 [J/(mol K)]       0.00000000 [mEh/K]
    Translational Cp        4.968 [cal/(mol K)]       20.786 [J/(mol K)]       0.00791703 [mEh/K]
    Rotational Cp           2.981 [cal/(mol K)]       12.472 [J/(mol K)]       0.00475022 [mEh/K]
    Vibrational Cp         11.265 [cal/(mol K)]       47.132 [J/(mol K)]       0.01795181 [mEh/K]
  Total Cp                 19.214 [cal/(mol K)]       80.390 [J/(mol K)]       0.03061905 [mEh/K]
  Correction Cp             0.000 [cal/(mol K)]        0.000 [J/(mol K)]       0.00000000 [mEh/K]

  ==> Thermochemistry Energy Analysis <==

  Raw electronic energy, E0
  Total E0, Electronic energy at well bottom at 0 [K]                 -232.17136466 [Eh]

  Zero-point energy, ZPE_vib = Sum_i nu_i / 2
    Electronic ZPE          0.000 [kcal/mol]        0.000 [kJ/mol]       0.00000000 [Eh]
    Translational ZPE       0.000 [kcal/mol]        0.000 [kJ/mol]       0.00000000 [Eh]
    Rotational ZPE          0.000 [kcal/mol]        0.000 [kJ/mol]       0.00000000 [Eh]
    Vibrational ZPE        62.649 [kcal/mol]      262.123 [kJ/mol]       0.09983733 [Eh]       21911.762 [cm^-1]
  Correction ZPE           62.649 [kcal/mol]      262.123 [kJ/mol]       0.09983733 [Eh]       21911.762 [cm^-1]
  Total ZPE, Electronic energy at 0 [K]                               -232.07152733 [Eh]

  Thermal Energy, E (includes ZPE)
    Electronic E            0.000 [kcal/mol]        0.000 [kJ/mol]       0.00000000 [Eh]
    Translational E         0.889 [kcal/mol]        3.718 [kJ/mol]       0.00141628 [Eh]
    Rotational E            0.889 [kcal/mol]        3.718 [kJ/mol]       0.00141628 [Eh]
    Vibrational E          63.623 [kcal/mol]      266.198 [kJ/mol]       0.10138935 [Eh]
  Correction E             65.400 [kcal/mol]      273.635 [kJ/mol]       0.10422191 [Eh]
  Total E, Electronic energy at  298.15 [K]                           -232.06714276 [Eh]

  Enthalpy, H_trans = E_trans + k_B * T
    Electronic H            0.000 [kcal/mol]        0.000 [kJ/mol]       0.00000000 [Eh]
    Translational H         1.481 [kcal/mol]        6.197 [kJ/mol]       0.00236046 [Eh]
    Rotational H            0.889 [kcal/mol]        3.718 [kJ/mol]       0.00141628 [Eh]
    Vibrational H          63.623 [kcal/mol]      266.198 [kJ/mol]       0.10138935 [Eh]
  Correction H             65.993 [kcal/mol]      276.114 [kJ/mol]       0.10516609 [Eh]
  Total H, Enthalpy at  298.15 [K]                                    -232.06619857 [Eh]

  Gibbs free energy, G = H - T * S
    Electronic G            0.000 [kcal/mol]        0.000 [kJ/mol]       0.00000000 [Eh]
    Translational G       -10.140 [kcal/mol]      -42.428 [kJ/mol]      -0.01615980 [Eh]
    Rotational G           -6.362 [kcal/mol]      -26.617 [kJ/mol]      -0.01013795 [Eh]
    Vibrational G          62.325 [kcal/mol]      260.767 [kJ/mol]       0.09932091 [Eh]
  Correction G             45.823 [kcal/mol]      191.722 [kJ/mol]       0.07302316 [Eh]
  Total G, Free enthalpy at  298.15 [K]                               -232.09834150 [Eh]

*** Psi4 exiting successfully. Buy a developer a beer!
