                               Psi4 1.3.2 release

  ==> Input File <==

--------------------------------------------------------------------------
set basis  cc-pVDZ
molecule {
0 1
   O        0.00000        0.00000        0.49152
   C        0.00000        0.00000       -0.65516
}
energy('MP2')
frequencies('MP2')
--------------------------------------------------------------------------

    Molecular point group: c2v
  Charge       = 0
  Multiplicity = 1
  Basis Set: CC-PVDZ
    Blend: CC-PVDZ
  Basis Set: (CC-PVDZ AUX)
    Blend: CC-PVDZ-JKFIT
  @DF-RHF Final Energy:  -112.74653589146058
    Total Energy =                       -112.7465358914605815
  Basis Set: (CC-PVDZ AUX)
    Blend: CC-PVDZ-RI
	 Reference Energy          =    -112.7465358914605815 [Eh]
	 Singles Energy            =      -0.0000000000000000 [Eh]
	 Same-Spin Energy          =      -0.0783079021067961 [Eh]
	 Opposite-Spin Energy      =      -0.2158376112352370 [Eh]
	 Correlation Energy        =      -0.2941455133420331 [Eh]
	 Total Energy              =    -113.0406814048026121 [Eh]
	 SCS Total Energy          =    -113.0316436589784672 [Eh]
    Molecular point group: c2v
  Basis Set: CC-PVDZ
    Blend: CC-PVDZ
  Basis Set: (CC-PVDZ AUX)
    Blend: CC-PVDZ-JKFIT
  @DF-RHF Final Energy:  -112.74653589146064
    Total Energy =                       -112.7465358914606384
  Basis Set: (CC-PVDZ AUX)
  @DF-RHF Final Energy:  -112.74653589146064
    Total Energy =                       -112.7465358914606384
  @DF-RHF Final Energy:  -112.74671270574237
    Total Energy =                       -112.7467127057423681
    Molecular point group: c2v
  Charge       = 0
  Multiplicity = 1
  Basis Set: CC-PVDZ
    Blend: CC-PVDZ
  Basis Set: (CC-PVDZ AUX)
    Blend: CC-PVDZ-JKFIT

    Orbital Energies [Eh]
    ---------------------

    Doubly Occupied:

       1A1   -20.669788     2A1   -11.374756     3A1    -1.509522
       4A1    -0.800308     1B2    -0.626030     1B1    -0.626030
       5A1    -0.551095

  @DF-RHF Final Energy:  -112.74635472162639

   => Energetics <=

    Nuclear Repulsion Energy =             22.1318434565547548
    One-Electron Energy =                -197.4413400917543413
    Two-Electron Energy =                  62.5631419135732045
    Total Energy =                       -112.7463547216263891

  Dipole Moment: [D]
     X:     0.0000      Y:     0.0000      Z:    -0.3304     Total:     0.3304

  Basis Set: (CC-PVDZ AUX)
    Blend: CC-PVDZ-RI
    Molecular point group: c2v

    Geometry (in Angstrom), charge = 0, multiplicity = 1:

       Center              X                  Y                   Z               Mass
    ------------   -----------------  -----------------  -----------------  -----------------
         O            0.000000000000     0.000000000000     0.491956699505    15.994914619570
         C            0.000000000000     0.000000000000    -0.655733783759    12.000000000000

  Basis Set: CC-PVDZ
    Blend: CC-PVDZ
  Basis Set: (CC-PVDZ AUX)
    Blend: CC-PVDZ-JKFIT
  Basis Set: (CC-PVDZ AUX)
    Blend: CC-PVDZ-JKFIT
	 Reference Energy          =    -112.7463547216263891 [Eh]
	 Singles Energy            =      -0.0000000000000000 [Eh]
	 Same-Spin Energy          =      -0.0783616935681303 [Eh]
	 Opposite-Spin Energy      =      -0.2159629068713719 [Eh]
	 Correlation Energy        =      -0.2943246004395023 [Eh]
	 Total Energy              =    -113.0406793220658983 [Eh]

	 ================> DF-SCS-MP2 Energies <==================
	-----------------------------------------------------------
	 SCS Same-Spin Scale       =       0.3333333333333333 [-]
	 SCS Opposite-Spin Scale   =       1.2000000000000000 [-]
	 SCS Same-Spin Energy      =      -0.0261205645227101 [Eh]
	 SCS Opposite-Spin Energy  =      -0.2591554882456463 [Eh]
	 SCS Correlation Energy    =      -0.2852760527683564 [Eh]
	 SCS Total Energy          =    -113.0316307743947419 [Eh]
	-----------------------------------------------------------

  -Total Gradient:
     Atom            X                  Y                   Z
    ------   -----------------  -----------------  -----------------
       1        0.000000000000    -0.000000000000     0.002195369745
       2        0.000000000000     0.000000000000    -0.002195369745

  Vibration                       6
  Freq [cm^-1]                2116.7548
  Irrep                           A1
  Reduced mass [u]             13.4388
  Force const [mDyne/A]        35.4773

  ==> Thermochemistry Components <==

  Entropy, S
    Electronic S            0.000 [cal/(mol K)]        0.000 [J/(mol K)]       0.00000000 [mEh/K] (multiplicity = 1)
    Translational S        35.923 [cal/(mol K)]      150.302 [J/(mol K)]       0.05724692 [mEh/K] (mol. weight = 27.9949 [u], P = 101325.00 [Pa])
    Rotational S           11.343 [cal/(mol K)]       47.458 [J/(mol K)]       0.01807582 [mEh/K] (symmetry no. = 1)
    Vibrational S           0.001 [cal/(mol K)]        0.003 [J/(mol K)]       0.00000130 [mEh/K]
  Total S                  47.267 [cal/(mol K)]      197.763 [J/(mol K)]       0.07532405 [mEh/K]
  Correction S              0.000 [cal/(mol K)]        0.000 [J/(mol K)]       0.00000000 [mEh/K]

  Constant volume heat capacity, Cv
    Electronic Cv           0.000 [cal/(mol K)]        0.000 [J/(mol K)]       0.00000000 [mEh/K]
    Translational Cv        2.981 [cal/(mol K)]       12.472 [J/(mol K)]       0.00475022 [mEh/K]
    Rotational Cv           1.987 [cal/(mol K)]        8.314 [J/(mol K)]       0.00316681 [mEh/K]
    Vibrational Cv          0.008 [cal/(mol K)]        0.032 [J/(mol K)]       0.00001210 [mEh/K]
  Total Cv                  4.976 [cal/(mol K)]       20.818 [J/(mol K)]       0.00792913 [mEh/K]
  Correction Cv             0.000 [cal/(mol K)]        0.000 [J/(mol K)]       0.00000000 [mEh/K]

  Constant pressure heat capacity, Cp
    Electronic Cp           0.000 [cal/(mol K)]        0.000 [J/(mol K)]       0.00000000 [mEh/K]
    Translational Cp        4.968 [cal/(mol K)]       20.786 [J/(mol K)]       0.00791703 [mEh/K]
    Rotational Cp           1.987 [cal/(mol K)]        8.314 [J/(mol K)]       0.00316681 [mEh/K]
    Vibrational Cp          0.008 [cal/(mol K)]        0.032 [J/(mol K)]       0.00001210 [mEh/K]
  Total Cp                  6.963 [cal/(mol K)]       29.132 [J/(mol K)]       0.01109594 [mEh/K]
  Correction Cp             0.000 [cal/(mol K)]        0.000 [J/(mol K)]       0.00000000 [mEh/K]

  ==> Thermochemistry Energy Analysis <==

  Raw electronic energy, E0
  Total E0, Electronic energy at well bottom at 0 [K]                 -113.04068140 [Eh]

  Zero-point energy, ZPE_vib = Sum_i nu_i / 2
    Electronic ZPE          0.000 [kcal/mol]        0.000 [kJ/mol]       0.00000000 [Eh]
    Translational ZPE       0.000 [kcal/mol]        0.000 [kJ/mol]       0.00000000 [Eh]
    Rotational ZPE          0.000 [kcal/mol]        0.000 [kJ/mol]       0.00000000 [Eh]
    Vibrational ZPE         3.026 [kcal/mol]       12.661 [kJ/mol]       0.00482232 [Eh]        1058.377 [cm^-1]
  Correction ZPE            3.026 [kcal/mol]       12.661 [kJ/mol]       0.00482232 [Eh]        1058.377 [cm^-1]
  Total ZPE, Electronic energy at 0 [K]                               -113.03585908 [Eh]

  Thermal Energy, E (includes ZPE)
    Electronic E            0.000 [kcal/mol]        0.000 [kJ/mol]       0.00000000 [Eh]
    Translational E         0.889 [kcal/mol]        3.718 [kJ/mol]       0.00141628 [Eh]
    Rotational E            0.592 [kcal/mol]        2.479 [kJ/mol]       0.00094418 [Eh]
    Vibrational E           3.026 [kcal/mol]       12.662 [kJ/mol]       0.00482268 [Eh]
  Correction E              4.507 [kcal/mol]       18.859 [kJ/mol]       0.00718314 [Eh]
  Total E, Electronic energy at  298.15 [K]                           -113.03349827 [Eh]

  Enthalpy, H_trans = E_trans + k_B * T
    Electronic H            0.000 [kcal/mol]        0.000 [kJ/mol]       0.00000000 [Eh]
    Translational H         1.481 [kcal/mol]        6.197 [kJ/mol]       0.00236046 [Eh]
    Rotational H            0.592 [kcal/mol]        2.479 [kJ/mol]       0.00094418 [Eh]
    Vibrational H           3.026 [kcal/mol]       12.662 [kJ/mol]       0.00482268 [Eh]
  Correction H              5.100 [kcal/mol]       21.338 [kJ/mol]       0.00812732 [Eh]
  Total H, Enthalpy at  298.15 [K]                                    -113.03255408 [Eh]

  Gibbs free energy, G = H - T * S
    Electronic G            0.000 [kcal/mol]        0.000 [kJ/mol]       0.00000000 [Eh]
    Translational G        -9.229 [kcal/mol]      -38.615 [kJ/mol]      -0.01470771 [Eh]
    Rotational G           -2.789 [kcal/mol]      -11.671 [kJ/mol]      -0.00444512 [Eh]
    Vibrational G           3.026 [kcal/mol]       12.661 [kJ/mol]       0.00482229 [Eh]
  Correction G             -8.993 [kcal/mol]      -37.625 [kJ/mol]      -0.01433054 [Eh]
  Total G, Free enthalpy at  298.15 [K]                               -113.05501195 [Eh]

*** Psi4 exiting successfully. Buy a developer a beer!
