                               Psi4 1.3.2 release

  ==> Input File <==

--------------------------------------------------------------------------
set basis  aug-cc-pVTZ
molecule {
0 1
   O        0.00000        0.00000        0.49152
   C        0.00000        0.00000       -0.65516
}
energy('MP2')
frequencies('MP2')
--------------------------------------------------------------------------

    Molecular point group: c2v
  Charge       = 0
  Multiplicity = 1
  Basis Set: AUG-CC-PVTZ
    Blend: AUG-CC-PVTZ
  Basis Set: (AUG-CC-PVTZ AUX)
    Blend: AUG-CC-PVTZ-JKFIT
  @DF-RHF Final Energy:  -112.77835098115627
    Total Energy =                       -112.7783509811562652
  Basis Set: (AUG-CC-PVTZ AUX)
    Blend: AUG-CC-PVTZ-RI
	 Reference Energy          =    -112.7783509811562652 [Eh]
	 Singles Energy            =      -0.0000000000000000 [Eh]
	 Same-Spin Energy          =      -0.0970191232591920 [Eh]
	 Opposite-Spin Energy      =      -0.2955887815155761 [Eh]
	 Correlation Energy        =      -0.3926079047747681 [Eh]
	 Total Energy              =    -113.1709588859310287 [Eh]
	 SCS Total Energy          =    -113.1653972267280182 [Eh]
    Molecular point group: c2v
  Basis Set: AUG-CC-PVTZ
    Blend: AUG-CC-PVTZ
  Basis Set: (AUG-CC-PVTZ AUX)
    Blend: AUG-CC-PVTZ-JKFIT
  @DF-RHF Final Energy:  -112.77835098115631
    Total Energy =                       -112.7783509811563079
  Basis Set: (AUG-CC-PVTZ AUX)
  @DF-RHF Final Energy:  -112.77835098115631
    Total Energy =                       -112.7783509811563079
  @DF-RHF Final Energy:  -112.77855125122079
    Total Energy =                       -112.7785512512207902
  @DF-RHF Final Energy:  -112.77814657851665
    Total Energy =                       -112.7781465785166404
  @DF-RHF Final Energy:  -112.77835089201659
    Total Energy =                       -112.7783508920165900
    Molecular point group: cs
  Charge       = 0
  Multiplicity = 1
  Basis Set: AUG-CC-PVTZ
    Blend: AUG-CC-PVTZ
  Basis Set: (AUG-CC-PVTZ AUX)
    Blend: AUG-CC-PVTZ-JKFIT

    Orbital Energies [Eh]
    ---------------------

    Doubly Occupied:

       1Ap   -20.668865     2Ap   -11.370283     3Ap    -1.510410
       4Ap    -0.803351     1App   -0.632586     5Ap    -0.632586
       6Ap    -0.556999

  @DF-RHF Final Energy:  -112.77835089200603

   => Energetics <=

    Nuclear Repulsion Energy =             22.1513379928885605
    One-Electron Energy =                -197.5092190884860202
    Two-Electron Energy =                  62.5795302035914318
    Total Energy =                       -112.7783508920060314

  Dipole Moment: [D]
     X:     0.0000      Y:     0.0003      Z:    -0.3590     Total:     0.3590

  Basis Set: (AUG-CC-PVTZ AUX)
    Blend: AUG-CC-PVTZ-RI
    Molecular point group: cs

    Geometry (in Angstrom), charge = 0, multiplicity = 1:

       Center              X                  Y                   Z               Mass
    ------------   -----------------  -----------------  -----------------  -----------------
         O            0.000000000000    -0.000433142923     0.491523556581    15.994914619570
         C            0.000000000000     0.000577340340    -0.655156443419    12.000000000000

  Basis Set: AUG-CC-PVTZ
    Blend: AUG-CC-PVTZ
  Basis Set: (AUG-CC-PVTZ AUX)
    Blend: AUG-CC-PVTZ-JKFIT
  Basis Set: (AUG-CC-PVTZ AUX)
    Blend: AUG-CC-PVTZ-JKFIT
	 Reference Energy          =    -112.7783508920060314 [Eh]
	 Singles Energy            =      -0.0000000000000000 [Eh]
	 Same-Spin Energy          =      -0.0970191448187881 [Eh]
	 Opposite-Spin Energy      =      -0.2955888273286262 [Eh]
	 Correlation Energy        =      -0.3926079721474143 [Eh]
	 Total Energy              =    -113.1709588641534481 [Eh]

	 ================> DF-SCS-MP2 Energies <==================
	-----------------------------------------------------------
	 SCS Same-Spin Scale       =       0.3333333333333333 [-]
	 SCS Opposite-Spin Scale   =       1.2000000000000000 [-]
	 SCS Same-Spin Energy      =      -0.0323397149395960 [Eh]
	 SCS Opposite-Spin Energy  =      -0.3547065927943514 [Eh]
	 SCS Correlation Energy    =      -0.3870463077339474 [Eh]
	 SCS Total Energy          =    -113.1653971997399850 [Eh]
	-----------------------------------------------------------

  -Total Gradient:
     Atom            X                  Y                   Z
    ------   -----------------  -----------------  -----------------
       1        0.000000000000    -0.000023343045     0.026489308945
       2        0.000000000000     0.000023343045    -0.026489308946

  Vibration                       4                   5                   6
  Freq [cm^-1]                 217.0586            217.0586           2042.6289
  Irrep                           B1                  B2                  A1
  Reduced mass [u]             13.4388             13.4388             13.4388
  Force const [mDyne/A]         0.3730              0.3730             33.0361

  ==> Thermochemistry Components <==

  Entropy, S
    Electronic S            0.000 [cal/(mol K)]        0.000 [J/(mol K)]       0.00000000 [mEh/K] (multiplicity = 1)
    Translational S        35.923 [cal/(mol K)]      150.302 [J/(mol K)]       0.05724692 [mEh/K] (mol. weight = 27.9949 [u], P = 101325.00 [Pa])
    Rotational S           11.343 [cal/(mol K)]       47.458 [J/(mol K)]       0.01807582 [mEh/K] (symmetry no. = 1)
    Vibrational S           3.968 [cal/(mol K)]       16.603 [J/(mol K)]       0.00632359 [mEh/K]
  Total S                  51.234 [cal/(mol K)]      214.362 [J/(mol K)]       0.08164634 [mEh/K]
  Correction S              0.000 [cal/(mol K)]        0.000 [J/(mol K)]       0.00000000 [mEh/K]

  Constant volume heat capacity, Cv
    Electronic Cv           0.000 [cal/(mol K)]        0.000 [J/(mol K)]       0.00000000 [mEh/K]
    Translational Cv        2.981 [cal/(mol K)]       12.472 [J/(mol K)]       0.00475022 [mEh/K]
    Rotational Cv           1.987 [cal/(mol K)]        8.314 [J/(mol K)]       0.00316681 [mEh/K]
    Vibrational Cv          3.640 [cal/(mol K)]       15.231 [J/(mol K)]       0.00580109 [mEh/K]
  Total Cv                  8.608 [cal/(mol K)]       36.017 [J/(mol K)]       0.01371811 [mEh/K]
  Correction Cv             0.000 [cal/(mol K)]        0.000 [J/(mol K)]       0.00000000 [mEh/K]

  Constant pressure heat capacity, Cp
    Electronic Cp           0.000 [cal/(mol K)]        0.000 [J/(mol K)]       0.00000000 [mEh/K]
    Translational Cp        4.968 [cal/(mol K)]       20.786 [J/(mol K)]       0.00791703 [mEh/K]
    Rotational Cp           1.987 [cal/(mol K)]        8.314 [J/(mol K)]       0.00316681 [mEh/K]
    Vibrational Cp          3.640 [cal/(mol K)]       15.231 [J/(mol K)]       0.00580109 [mEh/K]
  Total Cp                 10.595 [cal/(mol K)]       44.331 [J/(mol K)]       0.01688493 [mEh/K]
  Correction Cp             0.000 [cal/(mol K)]        0.000 [J/(mol K)]       0.00000000 [mEh/K]

  ==> Thermochemistry Energy Analysis <==

  Raw electronic energy, E0
  Total E0, Electronic energy at well bottom at 0 [K]                 -113.17095889 [Eh]

  Zero-point energy, ZPE_vib = Sum_i nu_i / 2
    Electronic ZPE          0.000 [kcal/mol]        0.000 [kJ/mol]       0.00000000 [Eh]
    Translational ZPE       0.000 [kcal/mol]        0.000 [kJ/mol]       0.00000000 [Eh]
    Rotational ZPE          0.000 [kcal/mol]        0.000 [kJ/mol]       0.00000000 [Eh]
    Vibrational ZPE         3.541 [kcal/mol]       14.814 [kJ/mol]       0.00564244 [Eh]        1238.373 [cm^-1]
  Correction ZPE            3.541 [kcal/mol]       14.814 [kJ/mol]       0.00564244 [Eh]        1238.373 [cm^-1]
  Total ZPE, Electronic energy at 0 [K]                               -113.16531644 [Eh]

  Thermal Energy, E (includes ZPE)
    Electronic E            0.000 [kcal/mol]        0.000 [kJ/mol]       0.00000000 [Eh]
    Translational E         0.889 [kcal/mol]        3.718 [kJ/mol]       0.00141628 [Eh]
    Rotational E            0.592 [kcal/mol]        2.479 [kJ/mol]       0.00094418 [Eh]
    Vibrational E           4.212 [kcal/mol]       17.622 [kJ/mol]       0.00671188 [Eh]
  Correction E              5.693 [kcal/mol]       23.819 [kJ/mol]       0.00907235 [Eh]
  Total E, Electronic energy at  298.15 [K]                           -113.16188654 [Eh]

  Enthalpy, H_trans = E_trans + k_B * T
    Electronic H            0.000 [kcal/mol]        0.000 [kJ/mol]       0.00000000 [Eh]
    Translational H         1.481 [kcal/mol]        6.197 [kJ/mol]       0.00236046 [Eh]
    Rotational H            0.592 [kcal/mol]        2.479 [kJ/mol]       0.00094418 [Eh]
    Vibrational H           4.212 [kcal/mol]       17.622 [kJ/mol]       0.00671188 [Eh]
  Correction H              6.285 [kcal/mol]       26.298 [kJ/mol]       0.01001653 [Eh]
  Total H, Enthalpy at  298.15 [K]                                    -113.16094236 [Eh]

  Gibbs free energy, G = H - T * S
    Electronic G            0.000 [kcal/mol]        0.000 [kJ/mol]       0.00000000 [Eh]
    Translational G        -9.229 [kcal/mol]      -38.615 [kJ/mol]      -0.01470771 [Eh]
    Rotational G           -2.789 [kcal/mol]      -11.671 [kJ/mol]      -0.00444512 [Eh]
    Vibrational G           3.029 [kcal/mol]       12.672 [kJ/mol]       0.00482651 [Eh]
  Correction G             -8.990 [kcal/mol]      -37.614 [kJ/mol]      -0.01432633 [Eh]
  Total G, Free enthalpy at  298.15 [K]                               -113.18528521 [Eh]

*** Psi4 exiting successfully. Buy a developer a beer!
