                               Psi4 1.3.2 release

  ==> Input File <==

--------------------------------------------------------------------------
set basis  6-31G
molecule {
0 1
   C       -1.22151       -0.69325        0.00000
   C       -1.21114        0.71122        0.00000
   C       -0.01037       -1.40452        0.00000
   C        0.01037        1.40452        0.00000
   C        1.21114       -0.71122        0.00000
   C        1.22151        0.69325        0.00000
   H       -2.17311       -1.23332        0.00000
   H       -2.15464        1.26533        0.00000
   H       -0.01848       -2.49865        0.00000
   H        0.01848        2.49865        0.00000
   H        2.15464       -1.26533        0.00000
   H        2.17311        1.23332        0.00000
}
energy('B3LYP')
frequencies('B3LYP')
--------------------------------------------------------------------------

    Molecular point group: c2h
  Charge       = 0
  Multiplicity = 1
  Basis Set: 6-31G
    Blend: 6-31G
  Basis Set: (6-31G AUX)
    Blend: CC-PVDZ-JKFIT
  @DF-RKS Final Energy:  -232.19827994343748
    Total Energy =                       -232.1982799434375124
    Molecular point group: c2h
  Basis Set: 6-31G
    Blend: 6-31G
  Basis Set: (6-31G AUX)
    Blend: CC-PVDZ-JKFIT
  @DF-RKS Final Energy:  -232.19827994385392
    Total Energy =                       -232.1982799438538905
  Basis Set: 6-31G
    Blend: 6-31G
  Basis Set: (6-31G AUX)
    Blend: CC-PVDZ-JKFIT
  Basis Set: 6-31G
    Blend: 6-31G
  Basis Set: (6-31G AUX)
    Blend: CC-PVDZ-JKFIT
  @DF-RKS Final Energy:  -232.19827994417702
    Total Energy =                       -232.1982799441770453
  Basis Set: 6-31G
  @DF-RKS Final Energy:  -232.19829329313541
    Total Energy =                       -232.1982932931353787
  @DF-RKS Final Energy:  -232.19828739558204
    Total Energy =                       -232.1982873955820423
  @DF-RKS Final Energy:  -232.19828149862235
    Total Energy =                       -232.1982814986223786
  @DF-RKS Final Energy:  -232.19828851855320
    Total Energy =                       -232.1982885185532268
  @DF-RKS Final Energy:  -232.19829275962218
    Total Energy =                       -232.1982927596221771
  @DF-RKS Final Energy:  -232.19828616398695
    Total Energy =                       -232.1982861639869782
  @DF-RKS Final Energy:  -232.19827564036419
    Total Energy =                       -232.1982756403641872
  @DF-RKS Final Energy:  -232.19828526687178
    Total Energy =                       -232.1982852668717499
  @DF-RKS Final Energy:  -232.19828682072830
    Total Energy =                       -232.1982868207282991
  @DF-RKS Final Energy:  -232.19828882170006
    Total Energy =                       -232.1982888217000323
  @DF-RKS Final Energy:  -232.19829739742713
    Total Energy =                       -232.1982973974270976
  @DF-RKS Final Energy:  -232.19829102377648
    Total Energy =                       -232.1982910237764770
  @DF-RKS Final Energy:  -232.19825100496382
    Total Energy =                       -232.1982510049637938
  @DF-RKS Final Energy:  -232.19832401609014
    Total Energy =                       -232.1983240160901119
  @DF-RKS Final Energy:  -232.19826008600552
    Total Energy =                       -232.1982600860055470
  @DF-RKS Final Energy:  -232.19830252629717
    Total Energy =                       -232.1983025262971694
  @DF-RKS Final Energy:  -232.19824968208391
    Total Energy =                       -232.1982496820839401
  @DF-RKS Final Energy:  -232.19833083153432
    Total Energy =                       -232.1983308315343209
  @DF-RKS Final Energy:  -232.19827959385492
    Total Energy =                       -232.1982795938549202
  @DF-RKS Final Energy:  -232.19827957854378
    Total Energy =                       -232.1982795785437759
  @DF-RKS Final Energy:  -232.19827954438466
    Total Energy =                       -232.1982795443846328
  @DF-RKS Final Energy:  -232.19827946545439
    Total Energy =                       -232.1982794654543909
  @DF-RKS Final Energy:  -232.19827973883625
    Total Energy =                       -232.1982797388362201
  @DF-RKS Final Energy:  -232.19827973501617
    Total Energy =                       -232.1982797350161718
  @DF-RKS Final Energy:  -232.19827968588663
    Total Energy =                       -232.1982796858866323
  @DF-RKS Final Energy:  -232.19827955954079
    Total Energy =                       -232.1982795595407651
  @DF-RKS Final Energy:  -232.19827955974438
    Total Energy =                       -232.1982795597443499
  @DF-RKS Final Energy:  -232.19827897401964
    Total Energy =                       -232.1982789740196438
  @DF-RKS Final Energy:  -232.19827892017946
    Total Energy =                       -232.1982789201794617
  @DF-RKS Final Energy:  -232.19827878305949
    Total Energy =                       -232.1982787830594646
  @DF-RKS Final Energy:  -232.19827889444483
    Total Energy =                       -232.1982788944448259
  @DF-RKS Final Energy:  -232.19827776074612
    Total Energy =                       -232.1982777607461230
  @DF-RKS Final Energy:  -232.19827711270062
    Total Energy =                       -232.1982771127006231
  @DF-RKS Final Energy:  -232.19827712915827
    Total Energy =                       -232.1982771291582992
  @DF-RKS Final Energy:  -232.19827772763728
    Total Energy =                       -232.1982777276372758
  Basis Set: (6-31G AUX)
    Blend: CC-PVDZ-JKFIT
  Basis Set: 6-31G
    Blend: 6-31G
  Basis Set: (6-31G AUX)
    Blend: CC-PVDZ-JKFIT
  @DF-RKS Final Energy:  -232.19827803297559
    Total Energy =                       -232.1982780329756224
  Basis Set: 6-31G
    Blend: 6-31G
  Basis Set: (6-31G AUX)
    Blend: CC-PVDZ-JKFIT
    Molecular point group: cs
  Charge       = 0
  Multiplicity = 1
  Basis Set: 6-31G
    Blend: 6-31G
  Basis Set: (6-31G AUX)
    Blend: CC-PVDZ-JKFIT

    Orbital Energies [Eh]
    ---------------------

    Doubly Occupied:

       1Ap   -10.187918     2Ap   -10.187717     3Ap   -10.187682
       4Ap   -10.187279     5Ap   -10.187243     6Ap   -10.187050
       7Ap    -0.849372     8Ap    -0.742564     9Ap    -0.742559
      10Ap    -0.599748    11Ap    -0.599738    12Ap    -0.520274
      13Ap    -0.459233    14Ap    -0.442910    15Ap    -0.420439
      16Ap    -0.420434     1App   -0.360435    17Ap    -0.341947
      18Ap    -0.341924     2App   -0.247964     3App   -0.247957

  @DF-RKS Final Energy:  -232.19827682423696

   => Energetics <=

    Nuclear Repulsion Energy =            202.0133184684007119
    One-Electron Energy =                -711.2728851035318485
    Two-Electron Energy =                 305.1829101890649554
    DFT Exchange-Correlation Energy =     -28.1216203781707392
    Empirical Dispersion Energy =           0.0000000000000000
    VV10 Nonlocal Energy =                  0.0000000000000000
    Total Energy =                       -232.1982768242369275

  Dipole Moment: [D]
     X:    -0.0011      Y:    -0.0019      Z:     0.0000     Total:     0.0022

    Molecular point group: cs

    Geometry (in Angstrom), charge = 0, multiplicity = 1:

       Center              X                  Y                   Z               Mass
    ------------   -----------------  -----------------  -----------------  -----------------
         C           -1.221510000000    -0.693250000000     0.000000000000    12.000000000000
         C           -1.211140000000     0.711220000000     0.000000000000    12.000000000000
         C           -0.010370000000    -1.404520000000     0.000000000000    12.000000000000
         C            0.010370000000     1.404520000000     0.000000000000    12.000000000000
         C            1.211140000000    -0.711220000000     0.000000000000    12.000000000000
         C            1.221510000000     0.693250000000     0.000000000000    12.000000000000
         H           -2.173110000000    -1.233320000000     0.000000000000     1.007825032230
         H           -2.154640000000     1.264012202829     0.000000000000     1.007825032230
         H           -0.018480000000    -2.497332202829     0.000000000000     1.007825032230
         H            0.018480000000     2.499967797171     0.000000000000     1.007825032230
         H            2.154640000000    -1.266647797171     0.000000000000     1.007825032230
         H            2.173110000000     1.233320000000     0.000000000000     1.007825032230

  Basis Set: 6-31G
    Blend: 6-31G
  Basis Set: (6-31G AUX)
    Blend: CC-PVDZ-JKFIT

  -Total Gradient:
     Atom            X                  Y                   Z
    ------   -----------------  -----------------  -----------------
       1        0.001348195700     0.000857650025     0.000000000000
       2        0.001174759905    -0.000594857163     0.000000000000
       3        0.000059077104     0.000787203620     0.000000000000
       4        0.000023681408    -0.002421839329     0.000000000000
       5       -0.001703029785     0.001186759156     0.000000000000
       6       -0.001520365540    -0.000849601978     0.000000000000
       7       -0.004958147935    -0.002820021387     0.000000000000
       8       -0.004616172957     0.002560232174     0.000000000000
       9       -0.000045265900    -0.004839268080     0.000000000000
      10        0.000046044157     0.006551888485     0.000000000000
      11        0.005224133463    -0.003232519521     0.000000000000
      12        0.004967287920     0.002814280808     0.000000000000

  Vibration                       7                   8                   9
  Freq [cm^-1]                 434.5624            434.7952            635.7104
  Irrep                           Au                  Au                  Ag
  Reduced mass [u]              2.9828              2.9821              6.3782
  Force const [mDyne/A]         0.3319              0.3322              1.5187

  Vibration                       10                  11                  12
  Freq [cm^-1]                 646.7134            740.6960            752.0842
  Irrep                           Ag                  Bg                  Au
  Reduced mass [u]              6.1741              3.5561              1.0848
  Force const [mDyne/A]         1.5214              1.1495              0.3615

  Vibration                       13                  14                  15
  Freq [cm^-1]                 916.4131            916.5078           1010.1809
  Irrep                           Bg                  Bg                  Ag
  Reduced mass [u]              1.2479              1.2479              5.9597
  Force const [mDyne/A]         0.6174              0.6176              3.5832

  Vibration                       16                  17                  18
  Freq [cm^-1]                1025.3376           1025.4264           1046.1853
  Irrep                           Au                  Au                  Bu
  Reduced mass [u]              1.3509              1.3508              6.5413
  Force const [mDyne/A]         0.8368              0.8369              4.2182

  Vibration                       19                  20                  21
  Freq [cm^-1]                1067.6725           1077.1061           1077.3339
  Irrep                           Bg                  Bu                  Bu
  Reduced mass [u]              1.2589              1.8481              1.8475
  Force const [mDyne/A]         0.8455              1.2633              1.2634

  Vibration                       22                  23                  24
  Freq [cm^-1]                1227.4378           1237.9783           1242.2850
  Irrep                           Bu                  Ag                  Ag
  Reduced mass [u]              1.1216              1.1597              1.1506
  Force const [mDyne/A]         0.9956              1.0472              1.0462

  Vibration                       25                  26                  27
  Freq [cm^-1]                1350.9151           1430.1197           1542.8585
  Irrep                           Bu                  Ag                  Bu
  Reduced mass [u]              5.4360              1.2479              1.8394
  Force const [mDyne/A]         5.8450              1.5038              2.5797

  Vibration                       28                  29                  30
  Freq [cm^-1]                1542.9343           1638.7961           1649.3832
  Irrep                           Bu                  Ag                  Ag
  Reduced mass [u]              1.8399              4.7304              4.9592
  Force const [mDyne/A]         2.5807              7.4851              7.9489

  Vibration                       31                  32                  33
  Freq [cm^-1]                3105.2506           3115.1112           3115.4768
  Irrep                           Bu                  Ag                  Ag
  Reduced mass [u]              1.0838              1.0874              1.0876
  Force const [mDyne/A]         6.1572              6.2169              6.2198

  Vibration                       34                  35                  36
  Freq [cm^-1]                3133.8179           3133.9301           3148.3145
  Irrep                           Bu                  Bu                  Ag
  Reduced mass [u]              1.0958              1.0958              1.1016
  Force const [mDyne/A]         6.3403              6.3408              6.4332

  ==> Thermochemistry Components <==

  Entropy, S
    Electronic S            0.000 [cal/(mol K)]        0.000 [J/(mol K)]       0.00000000 [mEh/K] (multiplicity = 1)
    Translational S        38.979 [cal/(mol K)]      163.089 [J/(mol K)]       0.06211726 [mEh/K] (mol. weight = 78.0470 [u], P = 101325.00 [Pa])
    Rotational S           24.318 [cal/(mol K)]      101.746 [J/(mol K)]       0.03875307 [mEh/K] (symmetry no. = 2)
    Vibrational S           3.949 [cal/(mol K)]       16.525 [J/(mol K)]       0.00629387 [mEh/K]
  Total S                  67.247 [cal/(mol K)]      281.360 [J/(mol K)]       0.10716421 [mEh/K]
  Correction S              0.000 [cal/(mol K)]        0.000 [J/(mol K)]       0.00000000 [mEh/K]

  Constant volume heat capacity, Cv
    Electronic Cv           0.000 [cal/(mol K)]        0.000 [J/(mol K)]       0.00000000 [mEh/K]
    Translational Cv        2.981 [cal/(mol K)]       12.472 [J/(mol K)]       0.00475022 [mEh/K]
    Rotational Cv           2.981 [cal/(mol K)]       12.472 [J/(mol K)]       0.00475022 [mEh/K]
    Vibrational Cv         10.416 [cal/(mol K)]       43.579 [J/(mol K)]       0.01659821 [mEh/K]
  Total Cv                 16.377 [cal/(mol K)]       68.522 [J/(mol K)]       0.02609864 [mEh/K]
  Correction Cv             0.000 [cal/(mol K)]        0.000 [J/(mol K)]       0.00000000 [mEh/K]

  Constant pressure heat capacity, Cp
    Electronic Cp           0.000 [cal/(mol K)]        0.000 [J/(mol K)]       0.00000000 [mEh/K]
    Translational Cp        4.968 [cal/(mol K)]       20.786 [J/(mol K)]       0.00791703 [mEh/K]
    Rotational Cp           2.981 [cal/(mol K)]       12.472 [J/(mol K)]       0.00475022 [mEh/K]
    Vibrational Cp         10.416 [cal/(mol K)]       43.579 [J/(mol K)]       0.01659821 [mEh/K]
  Total Cp                 18.364 [cal/(mol K)]       76.836 [J/(mol K)]       0.02926545 [mEh/K]
  Correction Cp             0.000 [cal/(mol K)]        0.000 [J/(mol K)]       0.00000000 [mEh/K]

  ==> Thermochemistry Energy Analysis <==

  Raw electronic energy, E0
  Total E0, Electronic energy at well bottom at 0 [K]                 -232.19827994 [Eh]

  Zero-point energy, ZPE_vib = Sum_i nu_i / 2
    Electronic ZPE          0.000 [kcal/mol]        0.000 [kJ/mol]       0.00000000 [Eh]
    Translational ZPE       0.000 [kcal/mol]        0.000 [kJ/mol]       0.00000000 [Eh]
    Rotational ZPE          0.000 [kcal/mol]        0.000 [kJ/mol]       0.00000000 [Eh]
    Vibrational ZPE        63.503 [kcal/mol]      265.699 [kJ/mol]       0.10119925 [Eh]       22210.667 [cm^-1]
  Correction ZPE           63.503 [kcal/mol]      265.699 [kJ/mol]       0.10119925 [Eh]       22210.667 [cm^-1]
  Total ZPE, Electronic energy at 0 [K]                               -232.09708070 [Eh]

  Thermal Energy, E (includes ZPE)
    Electronic E            0.000 [kcal/mol]        0.000 [kJ/mol]       0.00000000 [Eh]
    Translational E         0.889 [kcal/mol]        3.718 [kJ/mol]       0.00141628 [Eh]
    Rotational E            0.889 [kcal/mol]        3.718 [kJ/mol]       0.00141628 [Eh]
    Vibrational E          64.390 [kcal/mol]      269.407 [kJ/mol]       0.10261170 [Eh]
  Correction E             66.167 [kcal/mol]      276.844 [kJ/mol]       0.10544426 [Eh]
  Total E, Electronic energy at  298.15 [K]                           -232.09283569 [Eh]

  Enthalpy, H_trans = E_trans + k_B * T
    Electronic H            0.000 [kcal/mol]        0.000 [kJ/mol]       0.00000000 [Eh]
    Translational H         1.481 [kcal/mol]        6.197 [kJ/mol]       0.00236046 [Eh]
    Rotational H            0.889 [kcal/mol]        3.718 [kJ/mol]       0.00141628 [Eh]
    Vibrational H          64.390 [kcal/mol]      269.407 [kJ/mol]       0.10261170 [Eh]
  Correction H             66.760 [kcal/mol]      279.323 [kJ/mol]       0.10638844 [Eh]
  Total H, Enthalpy at  298.15 [K]                                    -232.09189150 [Eh]

  Gibbs free energy, G = H - T * S
    Electronic G            0.000 [kcal/mol]        0.000 [kJ/mol]       0.00000000 [Eh]
    Translational G       -10.140 [kcal/mol]      -42.428 [kJ/mol]      -0.01615980 [Eh]
    Rotational G           -6.362 [kcal/mol]      -26.617 [kJ/mol]      -0.01013795 [Eh]
    Vibrational G          63.212 [kcal/mol]      264.480 [kJ/mol]       0.10073518 [Eh]
  Correction G             46.710 [kcal/mol]      195.435 [kJ/mol]       0.07443743 [Eh]
  Total G, Free enthalpy at  298.15 [K]                               -232.12384251 [Eh]

*** Psi4 exiting successfully. Buy a developer a beer!
