                               Psi4 1.3.2 release

  ==> Input File <==

--------------------------------------------------------------------------
set basis  6-31++G**
molecule {
0 1
   C        0.32153        0.81326        0.00000
   C       -0.86505       -0.12817        0.00000
   C        0.54353       -0.68508        0.00000
   H        0.53795        1.36069       -0.92039
   H        0.53795        1.36069        0.92039
   H       -1.44742       -0.21449        0.92034
   H       -1.44742       -0.21449       -0.92034
   H        0.90937       -1.14629       -0.92037
   H        0.90937       -1.14629        0.92037
}
energy('scf')
frequencies('scf')
--------------------------------------------------------------------------

    Molecular point group: cs
  Charge       = 0
  Multiplicity = 1
  Basis Set: 6-31++G**
    Blend: 6-31++G**
  Basis Set: (6-31++G** AUX)
    Blend: AUG-CC-PVDZ-JKFIT
  @DF-RHF Final Energy:  -117.06964564986502
    Total Energy =                       -117.0696456498650235
    Molecular point group: cs
  Basis Set: 6-31++G**
    Blend: 6-31++G**
  Basis Set: (6-31++G** AUX)
    Blend: AUG-CC-PVDZ-JKFIT
  @DF-RHF Final Energy:  -117.06964565043499
    Total Energy =                       -117.0696456504349925
  Basis Set: 6-31++G**
    Blend: 6-31++G**
  Basis Set: (6-31++G** AUX)
    Blend: AUG-CC-PVDZ-JKFIT

  -Total Gradient:
     Atom            X                  Y                   Z
    ------   -----------------  -----------------  -----------------
       1        0.001327350489     0.003358644463     0.000000000000
       2       -0.003544402982    -0.000520927102     0.000000000000
       3        0.002243073172    -0.002815052708     0.000000000000
       4        0.002134218809     0.005401924949    -0.010559379135
       5        0.002134218809     0.005401924949     0.010559379135
       6       -0.005755521629    -0.000855970214     0.010548622857
       7       -0.005755521629    -0.000855970214    -0.010548622857
       8        0.003608292480    -0.004557287060    -0.010555210900
       9        0.003608292480    -0.004557287060     0.010555210900

  Charge       = 0
  Multiplicity = 1
  Basis Set: 6-31++G**
    Blend: 6-31++G**
  Basis Set: (6-31++G** AUX)
    Blend: AUG-CC-PVDZ-JKFIT

    Orbital Energies [Eh]
    ---------------------

    Doubly Occupied:

       1Ap   -11.230429     2Ap   -11.229478     3Ap   -11.229473
       4Ap    -1.126724     5Ap    -0.814650     6Ap    -0.814645
       1App   -0.663332     7Ap    -0.622353     2App   -0.510433
       3App   -0.510417     8Ap    -0.416682     9Ap    -0.416674

  @DF-RHF Final Energy:  -117.06964565043553

   => Energetics <=

    Nuclear Repulsion Energy =             75.2814648090140253
    One-Electron Energy =                -305.5316423661740828
    Two-Electron Energy =                 113.1805319067245108
    Total Energy =                       -117.0696456504355325

  Dipole Moment: [D]
     X:    -0.0001      Y:    -0.0001      Z:     0.0000     Total:     0.0001

    Molecular point group: cs
  Basis Set: 6-31++G**
    Blend: 6-31++G**
  Basis Set: (6-31++G** AUX)
    Blend: AUG-CC-PVDZ-JKFIT
  Basis Set: (6-31++G** AUX)
    Blend: AUG-CC-PVDZ-JKFIT
    Molecular point group: cs

    Geometry (in Angstrom), charge = 0, multiplicity = 1:

       Center              X                  Y                   Z               Mass
    ------------   -----------------  -----------------  -----------------  -----------------
         C            0.321531939855     0.813261460475     0.000000000000    12.000000000000
         C           -0.865048060145    -0.128168539525     0.000000000000    12.000000000000
         C            0.543531939855    -0.685078539525     0.000000000000    12.000000000000
         H            0.537951939855     1.360691460475    -0.920390000000     1.007825032230
         H            0.537951939855     1.360691460475     0.920390000000     1.007825032230
         H           -1.447418060145    -0.214488539525     0.920340000000     1.007825032230
         H           -1.447418060145    -0.214488539525    -0.920340000000     1.007825032230
         H            0.909371939855    -1.146288539525    -0.920370000000     1.007825032230
         H            0.909371939855    -1.146288539525     0.920370000000     1.007825032230

  Basis Set: 6-31++G**
    Blend: 6-31++G**
  Basis Set: (6-31++G** AUX)
    Blend: AUG-CC-PVDZ-JKFIT

  Vibration                       7                   8                   9
  Freq [cm^-1]                 879.1588            879.1746            913.6197
  Irrep                          App                 App                  Ap
  Reduced mass [u]              1.0217              1.0217              3.9639
  Force const [mDyne/A]         0.4653              0.4653              1.9494

  IR activ [km/mol]             0.0000              0.0000             29.3036

  Vibration                       10                  11                  12
  Freq [cm^-1]                 913.6652            983.5008           1218.5327
  Irrep                           Ap                 App                  Ap
  Reduced mass [u]              3.9639              1.0440              1.2345
  Force const [mDyne/A]         1.9496              0.5950              1.0800

  IR activ [km/mol]            29.2951              0.0036              6.3893

  Vibration                       13                  14                  15
  Freq [cm^-1]                1218.5455           1248.6488           1253.7904
  Irrep                           Ap                  Ap                  Ap
  Reduced mass [u]              1.2346              2.9489              1.4254
  Force const [mDyne/A]         1.0801              2.7088              1.3202

  IR activ [km/mol]             6.3860              0.0000              0.0000

  Vibration                       16                  17                  18
  Freq [cm^-1]                1286.2889           1339.6495           1339.6526
  Irrep                          App                 App                 App
  Reduced mass [u]              1.0078              1.4480              1.4480
  Force const [mDyne/A]         0.9825              1.5311              1.5311

  IR activ [km/mol]             0.0000              0.0000              0.0000

  Vibration                       19                  20                  21
  Freq [cm^-1]                1612.3871           1612.4100           1667.2072
  Irrep                           Ap                  Ap                  Ap
  Reduced mass [u]              1.0928              1.0928              1.2673
  Force const [mDyne/A]         1.6740              1.6740              2.0754

  IR activ [km/mol]             0.2154              0.2156              0.0000

  Vibration                       22                  23                  24
  Freq [cm^-1]                3134.5618           3134.5805           3147.7015
  Irrep                           Ap                  Ap                  Ap
  Reduced mass [u]              1.0504              1.0504              1.0643
  Force const [mDyne/A]         6.0809              6.0810              6.2129

  IR activ [km/mol]            37.5140             37.5187              0.0000

  Vibration                       25                  26                  27
  Freq [cm^-1]                3208.0400           3208.0547           3231.2772
  Irrep                          App                 App                 App
  Reduced mass [u]              1.1213              1.1213              1.1162
  Force const [mDyne/A]         6.7992              6.7993              6.8666

  IR activ [km/mol]             0.0000              0.0000             54.7827

  ==> Thermochemistry Components <==

  Entropy, S
    Electronic S            0.000 [cal/(mol K)]        0.000 [J/(mol K)]       0.00000000 [mEh/K] (multiplicity = 1)
    Translational S        37.135 [cal/(mol K)]      155.375 [J/(mol K)]       0.05917914 [mEh/K] (mol. weight = 42.0470 [u], P = 101325.00 [Pa])
    Rotational S           21.699 [cal/(mol K)]       90.789 [J/(mol K)]       0.03457982 [mEh/K] (symmetry no. = 1)
    Vibrational S           0.907 [cal/(mol K)]        3.795 [J/(mol K)]       0.00144527 [mEh/K]
  Total S                  59.742 [cal/(mol K)]      249.959 [J/(mol K)]       0.09520423 [mEh/K]
  Correction S              0.000 [cal/(mol K)]        0.000 [J/(mol K)]       0.00000000 [mEh/K]

  Constant volume heat capacity, Cv
    Electronic Cv           0.000 [cal/(mol K)]        0.000 [J/(mol K)]       0.00000000 [mEh/K]
    Translational Cv        2.981 [cal/(mol K)]       12.472 [J/(mol K)]       0.00475022 [mEh/K]
    Rotational Cv           2.981 [cal/(mol K)]       12.472 [J/(mol K)]       0.00475022 [mEh/K]
    Vibrational Cv          3.708 [cal/(mol K)]       15.513 [J/(mol K)]       0.00590850 [mEh/K]
  Total Cv                  9.669 [cal/(mol K)]       40.456 [J/(mol K)]       0.01540893 [mEh/K]
  Correction Cv             0.000 [cal/(mol K)]        0.000 [J/(mol K)]       0.00000000 [mEh/K]

  Constant pressure heat capacity, Cp
    Electronic Cp           0.000 [cal/(mol K)]        0.000 [J/(mol K)]       0.00000000 [mEh/K]
    Translational Cp        4.968 [cal/(mol K)]       20.786 [J/(mol K)]       0.00791703 [mEh/K]
    Rotational Cp           2.981 [cal/(mol K)]       12.472 [J/(mol K)]       0.00475022 [mEh/K]
    Vibrational Cp          3.708 [cal/(mol K)]       15.513 [J/(mol K)]       0.00590850 [mEh/K]
  Total Cp                 11.656 [cal/(mol K)]       48.771 [J/(mol K)]       0.01857574 [mEh/K]
  Correction Cp             0.000 [cal/(mol K)]        0.000 [J/(mol K)]       0.00000000 [mEh/K]

  ==> Thermochemistry Energy Analysis <==

  Raw electronic energy, E0
  Total E0, Electronic energy at well bottom at 0 [K]                 -117.06964565 [Eh]

  Zero-point energy, ZPE_vib = Sum_i nu_i / 2
    Electronic ZPE          0.000 [kcal/mol]        0.000 [kJ/mol]       0.00000000 [Eh]
    Translational ZPE       0.000 [kcal/mol]        0.000 [kJ/mol]       0.00000000 [Eh]
    Rotational ZPE          0.000 [kcal/mol]        0.000 [kJ/mol]       0.00000000 [Eh]
    Vibrational ZPE        53.510 [kcal/mol]      223.884 [kJ/mol]       0.08527283 [Eh]       18715.224 [cm^-1]
  Correction ZPE           53.510 [kcal/mol]      223.884 [kJ/mol]       0.08527283 [Eh]       18715.224 [cm^-1]
  Total ZPE, Electronic energy at 0 [K]                               -116.98437282 [Eh]

  Thermal Energy, E (includes ZPE)
    Electronic E            0.000 [kcal/mol]        0.000 [kJ/mol]       0.00000000 [Eh]
    Translational E         0.889 [kcal/mol]        3.718 [kJ/mol]       0.00141628 [Eh]
    Rotational E            0.889 [kcal/mol]        3.718 [kJ/mol]       0.00141628 [Eh]
    Vibrational E          53.733 [kcal/mol]      224.820 [kJ/mol]       0.08562932 [Eh]
  Correction E             55.511 [kcal/mol]      232.257 [kJ/mol]       0.08846187 [Eh]
  Total E, Electronic energy at  298.15 [K]                           -116.98118378 [Eh]

  Enthalpy, H_trans = E_trans + k_B * T
    Electronic H            0.000 [kcal/mol]        0.000 [kJ/mol]       0.00000000 [Eh]
    Translational H         1.481 [kcal/mol]        6.197 [kJ/mol]       0.00236046 [Eh]
    Rotational H            0.889 [kcal/mol]        3.718 [kJ/mol]       0.00141628 [Eh]
    Vibrational H          53.733 [kcal/mol]      224.820 [kJ/mol]       0.08562932 [Eh]
  Correction H             56.103 [kcal/mol]      234.736 [kJ/mol]       0.08940605 [Eh]
  Total H, Enthalpy at  298.15 [K]                                    -116.98023960 [Eh]

  Gibbs free energy, G = H - T * S
    Electronic G            0.000 [kcal/mol]        0.000 [kJ/mol]       0.00000000 [Eh]
    Translational G        -9.591 [kcal/mol]      -40.128 [kJ/mol]      -0.01528380 [Eh]
    Rotational G           -5.581 [kcal/mol]      -23.350 [kJ/mol]      -0.00889370 [Eh]
    Vibrational G          53.463 [kcal/mol]      223.688 [kJ/mol]       0.08519841 [Eh]
  Correction G             38.291 [kcal/mol]      160.210 [kJ/mol]       0.06102091 [Eh]
  Total G, Free enthalpy at  298.15 [K]                               -117.00862474 [Eh]

*** Psi4 exiting successfully. Buy a developer a beer!
