                               Psi4 1.3.2 release

  ==> Input File <==

--------------------------------------------------------------------------
set basis  6-311++G**
molecule {
0 1
   O        0.00000        0.00000        0.49152
   C        0.00000        0.00000       -0.65516
}
energy('B3LYP')
frequencies('B3LYP')
--------------------------------------------------------------------------

    Molecular point group: c2v
  Charge       = 0
  Multiplicity = 1
  Basis Set: 6-311++G**
    Blend: 6-311++G**
  Basis Set: (6-311++G** AUX)
    Blend: AUG-CC-PVTZ-JKFIT
  @DF-RKS Final Energy:  -113.34826029656055
    Total Energy =                       -113.3482602965605537
    Molecular point group: c2v
  Basis Set: 6-311++G**
    Blend: 6-311++G**
  Basis Set: (6-311++G** AUX)
    Blend: AUG-CC-PVTZ-JKFIT
  @DF-RKS Final Energy:  -113.34826029657988
    Total Energy =                       -113.3482602965798804
  Basis Set: 6-311++G**
    Blend: 6-311++G**
  Basis Set: (6-311++G** AUX)
    Blend: AUG-CC-PVTZ-JKFIT
  Basis Set: 6-311++G**
    Blend: 6-311++G**
  Basis Set: (6-311++G** AUX)
    Blend: AUG-CC-PVTZ-JKFIT
  @DF-RKS Final Energy:  -113.34826029657988
    Total Energy =                       -113.3482602965798804
  Basis Set: 6-311++G**
  @DF-RKS Final Energy:  -113.34833965983627
    Total Energy =                       -113.3483396598362702
  @DF-RKS Final Energy:  -113.34817688865787
    Total Energy =                       -113.3481768886578749
  Basis Set: (6-311++G** AUX)
    Blend: AUG-CC-PVTZ-JKFIT
  Basis Set: 6-311++G**
    Blend: 6-311++G**
  Basis Set: (6-311++G** AUX)
    Blend: AUG-CC-PVTZ-JKFIT
  @DF-RKS Final Energy:  -113.34826026073240
    Total Energy =                       -113.3482602607323884
  Basis Set: 6-311++G**
    Blend: 6-311++G**
  Basis Set: (6-311++G** AUX)
    Blend: AUG-CC-PVTZ-JKFIT
    Molecular point group: cs
  Charge       = 0
  Multiplicity = 1
  Basis Set: 6-311++G**
    Blend: 6-311++G**
  Basis Set: (6-311++G** AUX)
    Blend: AUG-CC-PVTZ-JKFIT

    Orbital Energies [Eh]
    ---------------------

    Doubly Occupied:

       1Ap   -19.239546     2Ap   -10.303700     3Ap    -1.168137
       4Ap    -0.586431     5Ap    -0.480443     1App   -0.480443
       6Ap    -0.389362

  @DF-RKS Final Energy:  -113.34826026072321

   => Energetics <=

    Nuclear Repulsion Energy =             22.1513379928885605
    One-Electron Energy =                -197.6299256207219059
    Two-Electron Energy =                  73.3534296667341152
    DFT Exchange-Correlation Energy =     -11.2231022996239691
    Empirical Dispersion Energy =           0.0000000000000000
    VV10 Nonlocal Energy =                  0.0000000000000000
    Total Energy =                       -113.3482602607232081

  Dipole Moment: [D]
     X:     0.0000      Y:     0.0000      Z:    -0.0011     Total:     0.0011

    Molecular point group: cs

    Geometry (in Angstrom), charge = 0, multiplicity = 1:

       Center              X                  Y                   Z               Mass
    ------------   -----------------  -----------------  -----------------  -----------------
         O            0.000000000000    -0.000433142923     0.491523556581    15.994914619570
         C            0.000000000000     0.000577340340    -0.655156443419    12.000000000000

  Basis Set: 6-311++G**
    Blend: 6-311++G**
  Basis Set: (6-311++G** AUX)
    Blend: AUG-CC-PVTZ-JKFIT

  -Total Gradient:
     Atom            X                  Y                   Z
    ------   -----------------  -----------------  -----------------
       1        0.000000000000    -0.000037552271     0.042613707286
       2        0.000000000000     0.000037559617    -0.042622043671

  Vibration                       4                   5                   6
  Freq [cm^-1]                 275.3218            275.3218           2067.7025
  Irrep                           B1                  B2                  A1
  Reduced mass [u]             13.4388             13.4388             13.4388
  Force const [mDyne/A]         0.6002              0.6002             33.8521

  ==> Thermochemistry Components <==

  Entropy, S
    Electronic S            0.000 [cal/(mol K)]        0.000 [J/(mol K)]       0.00000000 [mEh/K] (multiplicity = 1)
    Translational S        35.923 [cal/(mol K)]      150.302 [J/(mol K)]       0.05724692 [mEh/K] (mol. weight = 27.9949 [u], P = 101325.00 [Pa])
    Rotational S           11.343 [cal/(mol K)]       47.458 [J/(mol K)]       0.01807582 [mEh/K] (symmetry no. = 1)
    Vibrational S           3.126 [cal/(mol K)]       13.080 [J/(mol K)]       0.00498182 [mEh/K]
  Total S                  50.392 [cal/(mol K)]      210.840 [J/(mol K)]       0.08030456 [mEh/K]
  Correction S              0.000 [cal/(mol K)]        0.000 [J/(mol K)]       0.00000000 [mEh/K]

  Constant volume heat capacity, Cv
    Electronic Cv           0.000 [cal/(mol K)]        0.000 [J/(mol K)]       0.00000000 [mEh/K]
    Translational Cv        2.981 [cal/(mol K)]       12.472 [J/(mol K)]       0.00475022 [mEh/K]
    Rotational Cv           1.987 [cal/(mol K)]        8.314 [J/(mol K)]       0.00316681 [mEh/K]
    Vibrational Cv          3.447 [cal/(mol K)]       14.423 [J/(mol K)]       0.00549338 [mEh/K]
  Total Cv                  8.415 [cal/(mol K)]       35.209 [J/(mol K)]       0.01341040 [mEh/K]
  Correction Cv             0.000 [cal/(mol K)]        0.000 [J/(mol K)]       0.00000000 [mEh/K]

  Constant pressure heat capacity, Cp
    Electronic Cp           0.000 [cal/(mol K)]        0.000 [J/(mol K)]       0.00000000 [mEh/K]
    Translational Cp        4.968 [cal/(mol K)]       20.786 [J/(mol K)]       0.00791703 [mEh/K]
    Rotational Cp           1.987 [cal/(mol K)]        8.314 [J/(mol K)]       0.00316681 [mEh/K]
    Vibrational Cp          3.447 [cal/(mol K)]       14.423 [J/(mol K)]       0.00549338 [mEh/K]
  Total Cp                 10.402 [cal/(mol K)]       43.523 [J/(mol K)]       0.01657721 [mEh/K]
  Correction Cp             0.000 [cal/(mol K)]        0.000 [J/(mol K)]       0.00000000 [mEh/K]

  ==> Thermochemistry Energy Analysis <==

  Raw electronic energy, E0
  Total E0, Electronic energy at well bottom at 0 [K]                 -113.34826030 [Eh]

  Zero-point energy, ZPE_vib = Sum_i nu_i / 2
    Electronic ZPE          0.000 [kcal/mol]        0.000 [kJ/mol]       0.00000000 [Eh]
    Translational ZPE       0.000 [kcal/mol]        0.000 [kJ/mol]       0.00000000 [Eh]
    Rotational ZPE          0.000 [kcal/mol]        0.000 [kJ/mol]       0.00000000 [Eh]
    Vibrational ZPE         3.743 [kcal/mol]       15.661 [kJ/mol]       0.00596503 [Eh]        1309.173 [cm^-1]
  Correction ZPE            3.743 [kcal/mol]       15.661 [kJ/mol]       0.00596503 [Eh]        1309.173 [cm^-1]
  Total ZPE, Electronic energy at 0 [K]                               -113.34229527 [Eh]

  Thermal Energy, E (includes ZPE)
    Electronic E            0.000 [kcal/mol]        0.000 [kJ/mol]       0.00000000 [Eh]
    Translational E         0.889 [kcal/mol]        3.718 [kJ/mol]       0.00141628 [Eh]
    Rotational E            0.592 [kcal/mol]        2.479 [kJ/mol]       0.00094418 [Eh]
    Vibrational E           4.311 [kcal/mol]       18.035 [kJ/mol]       0.00686932 [Eh]
  Correction E              5.792 [kcal/mol]       24.233 [kJ/mol]       0.00922978 [Eh]
  Total E, Electronic energy at  298.15 [K]                           -113.33903052 [Eh]

  Enthalpy, H_trans = E_trans + k_B * T
    Electronic H            0.000 [kcal/mol]        0.000 [kJ/mol]       0.00000000 [Eh]
    Translational H         1.481 [kcal/mol]        6.197 [kJ/mol]       0.00236046 [Eh]
    Rotational H            0.592 [kcal/mol]        2.479 [kJ/mol]       0.00094418 [Eh]
    Vibrational H           4.311 [kcal/mol]       18.035 [kJ/mol]       0.00686932 [Eh]
  Correction H              6.384 [kcal/mol]       26.712 [kJ/mol]       0.01017396 [Eh]
  Total H, Enthalpy at  298.15 [K]                                    -113.33808633 [Eh]

  Gibbs free energy, G = H - T * S
    Electronic G            0.000 [kcal/mol]        0.000 [kJ/mol]       0.00000000 [Eh]
    Translational G        -9.229 [kcal/mol]      -38.615 [kJ/mol]      -0.01470771 [Eh]
    Rotational G           -2.789 [kcal/mol]      -11.671 [kJ/mol]      -0.00444512 [Eh]
    Vibrational G           3.379 [kcal/mol]       14.136 [kJ/mol]       0.00538399 [Eh]
  Correction G             -8.640 [kcal/mol]      -36.150 [kJ/mol]      -0.01376884 [Eh]
  Total G, Free enthalpy at  298.15 [K]                               -113.36202914 [Eh]

*** Psi4 exiting successfully. Buy a developer a beer!
