                               Psi4 1.3.2 release

  ==> Input File <==

--------------------------------------------------------------------------
set basis  cc-pVDZ
molecule {
0 1
   C       -1.22151       -0.69325        0.00000
   C       -1.21114        0.71122        0.00000
   C       -0.01037       -1.40452        0.00000
   C        0.01037        1.40452        0.00000
   C        1.21114       -0.71122        0.00000
   C        1.22151        0.69325        0.00000
   H       -2.17311       -1.23332        0.00000
   H       -2.15464        1.26533        0.00000
   H       -0.01848       -2.49865        0.00000
   H        0.01848        2.49865        0.00000
   H        2.15464       -1.26533        0.00000
   H        2.17311        1.23332        0.00000
}
energy('MP2')
frequencies('MP2')
--------------------------------------------------------------------------

    Molecular point group: c2h
  Charge       = 0
  Multiplicity = 1
  Basis Set: CC-PVDZ
    Blend: CC-PVDZ
  Basis Set: (CC-PVDZ AUX)
    Blend: CC-PVDZ-JKFIT
  @DF-RHF Final Energy:  -230.71976312262154
    Total Energy =                       -230.7197631226215435
  Basis Set: (CC-PVDZ AUX)
    Blend: CC-PVDZ-RI
	 Reference Energy          =    -230.7197631226215435 [Eh]
	 Singles Energy            =      -0.0000000000000000 [Eh]
	 Same-Spin Energy          =      -0.2107922831018831 [Eh]
	 Opposite-Spin Energy      =      -0.5902903571708102 [Eh]
	 Correlation Energy        =      -0.8010826402726933 [Eh]
	 Total Energy              =    -231.5208457628942256 [Eh]
	 SCS Total Energy          =    -231.4983756455937964 [Eh]
    Molecular point group: c2h
  Basis Set: CC-PVDZ
    Blend: CC-PVDZ
  Basis Set: (CC-PVDZ AUX)
    Blend: CC-PVDZ-JKFIT
  @DF-RHF Final Energy:  -230.71976312254682
    Total Energy =                       -230.7197631225467944
  Basis Set: (CC-PVDZ AUX)
  @DF-RHF Final Energy:  -230.71976312254782
    Total Energy =                       -230.7197631225478176
  @DF-RHF Final Energy:  -230.71974756893459
    Total Energy =                       -230.7197475689346220
  @DF-RHF Final Energy:  -230.71977690392271
    Total Energy =                       -230.7197769039227069
  @DF-RHF Final Energy:  -230.71975498922745
    Total Energy =                       -230.7197549892274537
  @DF-RHF Final Energy:  -230.71976911175051
    Total Energy =                       -230.7197691117505087
  @DF-RHF Final Energy:  -230.71974740554174
    Total Energy =                       -230.7197474055417388
  @DF-RHF Final Energy:  -230.71977690847223
    Total Energy =                       -230.7197769084722268
  @DF-RHF Final Energy:  -230.71976900457213
    Total Energy =                       -230.7197690045721288
  @DF-RHF Final Energy:  -230.71975527491946
    Total Energy =                       -230.7197552749194642
  @DF-RHF Final Energy:  -230.71976190981616
    Total Energy =                       -230.7197619098161567
  @DF-RHF Final Energy:  -230.71976218934944
    Total Energy =                       -230.7197621893494670
  @DF-RHF Final Energy:  -230.71974591472144
    Total Energy =                       -230.7197459147214431
  @DF-RHF Final Energy:  -230.71977867220119
    Total Energy =                       -230.7197786722011870
  @DF-RHF Final Energy:  -230.71970216514214
    Total Energy =                       -230.7197021651421665
  @DF-RHF Final Energy:  -230.71981622935925
    Total Energy =                       -230.7198162293592532
  @DF-RHF Final Energy:  -230.71973514481235
    Total Energy =                       -230.7197351448123754
  @DF-RHF Final Energy:  -230.71978808654677
    Total Energy =                       -230.7197880865467710
  @DF-RHF Final Energy:  -230.71970101054785
    Total Energy =                       -230.7197010105478512
  @DF-RHF Final Energy:  -230.71982134979052
    Total Energy =                       -230.7198213497904931
  @DF-RHF Final Energy:  -230.71976273145930
    Total Energy =                       -230.7197627314592978
  @DF-RHF Final Energy:  -230.71976267952741
    Total Energy =                       -230.7197626795274346
  @DF-RHF Final Energy:  -230.71976266842131
    Total Energy =                       -230.7197626684213105
  @DF-RHF Final Energy:  -230.71976257791815
    Total Energy =                       -230.7197625779181180
  @DF-RHF Final Energy:  -230.71976287813709
    Total Energy =                       -230.7197628781370895
  @DF-RHF Final Energy:  -230.71976287364069
    Total Energy =                       -230.7197628736406614
  @DF-RHF Final Energy:  -230.71976281675319
    Total Energy =                       -230.7197628167531889
  @DF-RHF Final Energy:  -230.71976266374276
    Total Energy =                       -230.7197626637427561
  @DF-RHF Final Energy:  -230.71976266396183
    Total Energy =                       -230.7197626639618306
  @DF-RHF Final Energy:  -230.71976201979064
    Total Energy =                       -230.7197620197906645
  @DF-RHF Final Energy:  -230.71976219862862
    Total Energy =                       -230.7197621986285867
  @DF-RHF Final Energy:  -230.71976186342059
    Total Energy =                       -230.7197618634206151
  @DF-RHF Final Energy:  -230.71976211384032
    Total Energy =                       -230.7197621138403179
  @DF-RHF Final Energy:  -230.71976064844222
    Total Energy =                       -230.7197606484422181
  @DF-RHF Final Energy:  -230.71976021846069
    Total Energy =                       -230.7197602184606922
  @DF-RHF Final Energy:  -230.71975992977602
    Total Energy =                       -230.7197599297759893
  @DF-RHF Final Energy:  -230.71976090097095
    Total Energy =                       -230.7197609009709822
  @DF-RHF Final Energy:  -230.71976090089180
    Total Energy =                       -230.7197609008917993
    Molecular point group: cs
  Charge       = 0
  Multiplicity = 1
  Basis Set: CC-PVDZ
    Blend: CC-PVDZ
  Basis Set: (CC-PVDZ AUX)
    Blend: CC-PVDZ-JKFIT

    Orbital Energies [Eh]
    ---------------------

    Doubly Occupied:

       1Ap   -11.243678     2Ap   -11.243147     3Ap   -11.243130
       4Ap   -11.242005     5Ap   -11.241989     6Ap   -11.241431
       7Ap    -1.142311     8Ap    -1.009105     9Ap    -1.009098
      10Ap    -0.818429    11Ap    -0.818416    12Ap    -0.700124
      13Ap    -0.639746    14Ap    -0.611624    15Ap    -0.581657
      16Ap    -0.581654     1App   -0.495306    17Ap    -0.489801
      18Ap    -0.489772     2App   -0.332165     3App   -0.332155

  @DF-RHF Final Energy:  -230.71975992978392

   => Energetics <=

    Nuclear Repulsion Energy =            202.0133184684007119
    One-Electron Energy =                -710.4526673795248826
    Two-Electron Energy =                 277.7195889813402232
    Total Energy =                       -230.7197599297839474

  Dipole Moment: [D]
     X:    -0.0011      Y:    -0.0018      Z:     0.0000     Total:     0.0021

  Basis Set: (CC-PVDZ AUX)
    Blend: CC-PVDZ-RI
    Molecular point group: cs

    Geometry (in Angstrom), charge = 0, multiplicity = 1:

       Center              X                  Y                   Z               Mass
    ------------   -----------------  -----------------  -----------------  -----------------
         C           -1.221510000000    -0.693250000000     0.000000000000    12.000000000000
         C           -1.211140000000     0.711220000000     0.000000000000    12.000000000000
         C           -0.010370000000    -1.404520000000     0.000000000000    12.000000000000
         C            0.010370000000     1.404520000000     0.000000000000    12.000000000000
         C            1.211140000000    -0.711220000000     0.000000000000    12.000000000000
         C            1.221510000000     0.693250000000     0.000000000000    12.000000000000
         H           -2.173110000000    -1.233320000000     0.000000000000     1.007825032230
         H           -2.154640000000     1.264012202829     0.000000000000     1.007825032230
         H           -0.018480000000    -2.497332202829     0.000000000000     1.007825032230
         H            0.018480000000     2.499967797171     0.000000000000     1.007825032230
         H            2.154640000000    -1.266647797171     0.000000000000     1.007825032230
         H            2.173110000000     1.233320000000     0.000000000000     1.007825032230

  Basis Set: CC-PVDZ
    Blend: CC-PVDZ
  Basis Set: (CC-PVDZ AUX)
    Blend: CC-PVDZ-JKFIT
  Basis Set: (CC-PVDZ AUX)
    Blend: CC-PVDZ-JKFIT
	 Reference Energy          =    -230.7197599297839190 [Eh]
	 Singles Energy            =      -0.0000000000000000 [Eh]
	 Same-Spin Energy          =      -0.2107923023552340 [Eh]
	 Opposite-Spin Energy      =      -0.5902904131247561 [Eh]
	 Correlation Energy        =      -0.8010827154799900 [Eh]
	 Total Energy              =    -231.5208426452639117 [Eh]

	 ================> DF-SCS-MP2 Energies <==================
	-----------------------------------------------------------
	 SCS Same-Spin Scale       =       0.3333333333333333 [-]
	 SCS Opposite-Spin Scale   =       1.2000000000000000 [-]
	 SCS Same-Spin Energy      =      -0.0702641007850780 [Eh]
	 SCS Opposite-Spin Energy  =      -0.7083484957497073 [Eh]
	 SCS Correlation Energy    =      -0.7786125965347852 [Eh]
	 SCS Total Energy          =    -231.4983725263187182 [Eh]
	-----------------------------------------------------------

  -Total Gradient:
     Atom            X                  Y                   Z
    ------   -----------------  -----------------  -----------------
       1       -0.000087501562     0.000031352138     0.000000000000
       2       -0.000296114987     0.000267838126     0.000000000000
       3        0.000043749874    -0.000912930002     0.000000000000
       4        0.000027818701    -0.000845733997     0.000000000000
       5       -0.000289632790     0.000347670690     0.000000000000
       6       -0.000082288526    -0.000033566928     0.000000000000
       7       -0.000020749097    -0.000017797325     0.000000000000
       8        0.000314055760    -0.000319034938     0.000000000000
       9       -0.000001976211     0.000899983425     0.000000000000
      10        0.000003871169     0.000932812565     0.000000000000
      11        0.000361489001    -0.000361175106     0.000000000000
      12        0.000027278667     0.000010581353     0.000000000000

  Vibration                       7                   8                   9
  Freq [cm^-1]                 402.0332            402.0694            606.4016
  Irrep                           Au                  Au                  Ag
  Reduced mass [u]              3.0349              3.0344              5.9908
  Force const [mDyne/A]         0.2890              0.2890              1.2980

  Vibration                       10                  11                  12
  Freq [cm^-1]                 606.4207            636.6029            687.9381
  Irrep                           Ag                  Bg                  Au
  Reduced mass [u]              5.9911              6.9107              1.0848
  Force const [mDyne/A]         1.2981              1.6501              0.3025

  Vibration                       13                  14                  15
  Freq [cm^-1]                 861.5959            861.6577            957.4148
  Irrep                           Bg                  Bg                  Au
  Reduced mass [u]              1.2479              1.2479              1.3405
  Force const [mDyne/A]         0.5458              0.5459              0.7239

  Vibration                       16                  17                  18
  Freq [cm^-1]                 957.4771            966.2408           1006.4738
  Irrep                           Au                  Bg                  Bu
  Reduced mass [u]              1.3404              1.0743              6.5973
  Force const [mDyne/A]         0.7240              0.5909              3.9375

  Vibration                       19                  20                  21
  Freq [cm^-1]                1019.1906           1062.9182           1062.9350
  Irrep                           Ag                  Bu                  Bu
  Reduced mass [u]              5.9419              1.6421              1.6419
  Force const [mDyne/A]         3.6365              1.0931              1.0929

  Vibration                       22                  23                  24
  Freq [cm^-1]                1164.8062           1192.2788           1192.3299
  Irrep                           Bu                  Ag                  Ag
  Reduced mass [u]              1.0283              1.1192              1.1191
  Force const [mDyne/A]         0.8220              0.9374              0.9374

  Vibration                       25                  26                  27
  Freq [cm^-1]                1358.9909           1477.5221           1506.7729
  Irrep                           Ag                  Bu                  Bu
  Reduced mass [u]              1.2479              9.6965              2.0974
  Force const [mDyne/A]         1.3578             12.4719              2.8055

  Vibration                       28                  29                  30
  Freq [cm^-1]                1506.7859           1652.7896           1652.9106
  Irrep                           Bu                  Ag                  Ag
  Reduced mass [u]              2.0978              5.8342              5.8351
  Force const [mDyne/A]         2.8062              9.3901              9.3929

  Vibration                       31                  32                  33
  Freq [cm^-1]                3215.0997           3226.3779           3226.5036
  Irrep                           Bu                  Ag                  Ag
  Reduced mass [u]              1.0823              1.0878              1.0878
  Force const [mDyne/A]         6.5913              6.6715              6.6720

  Vibration                       34                  35                  36
  Freq [cm^-1]                3243.0037           3243.1197           3253.1051
  Irrep                           Bu                  Bu                  Ag
  Reduced mass [u]              1.0969              1.0969              1.1022
  Force const [mDyne/A]         6.7972              6.7977              6.8724

  ==> Thermochemistry Components <==

  Entropy, S
    Electronic S            0.000 [cal/(mol K)]        0.000 [J/(mol K)]       0.00000000 [mEh/K] (multiplicity = 1)
    Translational S        38.979 [cal/(mol K)]      163.089 [J/(mol K)]       0.06211726 [mEh/K] (mol. weight = 78.0470 [u], P = 101325.00 [Pa])
    Rotational S           24.318 [cal/(mol K)]      101.746 [J/(mol K)]       0.03875307 [mEh/K] (symmetry no. = 2)
    Vibrational S           4.679 [cal/(mol K)]       19.577 [J/(mol K)]       0.00745648 [mEh/K]
  Total S                  67.976 [cal/(mol K)]      284.412 [J/(mol K)]       0.10832682 [mEh/K]
  Correction S              0.000 [cal/(mol K)]        0.000 [J/(mol K)]       0.00000000 [mEh/K]

  Constant volume heat capacity, Cv
    Electronic Cv           0.000 [cal/(mol K)]        0.000 [J/(mol K)]       0.00000000 [mEh/K]
    Translational Cv        2.981 [cal/(mol K)]       12.472 [J/(mol K)]       0.00475022 [mEh/K]
    Rotational Cv           2.981 [cal/(mol K)]       12.472 [J/(mol K)]       0.00475022 [mEh/K]
    Vibrational Cv         11.591 [cal/(mol K)]       48.498 [J/(mol K)]       0.01847180 [mEh/K]
  Total Cv                 17.553 [cal/(mol K)]       73.441 [J/(mol K)]       0.02797223 [mEh/K]
  Correction Cv             0.000 [cal/(mol K)]        0.000 [J/(mol K)]       0.00000000 [mEh/K]

  Constant pressure heat capacity, Cp
    Electronic Cp           0.000 [cal/(mol K)]        0.000 [J/(mol K)]       0.00000000 [mEh/K]
    Translational Cp        4.968 [cal/(mol K)]       20.786 [J/(mol K)]       0.00791703 [mEh/K]
    Rotational Cp           2.981 [cal/(mol K)]       12.472 [J/(mol K)]       0.00475022 [mEh/K]
    Vibrational Cp         11.591 [cal/(mol K)]       48.498 [J/(mol K)]       0.01847180 [mEh/K]
  Total Cp                 19.540 [cal/(mol K)]       81.756 [J/(mol K)]       0.03113904 [mEh/K]
  Correction Cp             0.000 [cal/(mol K)]        0.000 [J/(mol K)]       0.00000000 [mEh/K]

  ==> Thermochemistry Energy Analysis <==

  Raw electronic energy, E0
  Total E0, Electronic energy at well bottom at 0 [K]                 -231.52084577 [Eh]

  Zero-point energy, ZPE_vib = Sum_i nu_i / 2
    Electronic ZPE          0.000 [kcal/mol]        0.000 [kJ/mol]       0.00000000 [Eh]
    Translational ZPE       0.000 [kcal/mol]        0.000 [kJ/mol]       0.00000000 [Eh]
    Rotational ZPE          0.000 [kcal/mol]        0.000 [kJ/mol]       0.00000000 [Eh]
    Vibrational ZPE        63.201 [kcal/mol]      264.433 [kJ/mol]       0.10071726 [Eh]       22104.883 [cm^-1]
  Correction ZPE           63.201 [kcal/mol]      264.433 [kJ/mol]       0.10071726 [Eh]       22104.883 [cm^-1]
  Total ZPE, Electronic energy at 0 [K]                               -231.42012852 [Eh]

  Thermal Energy, E (includes ZPE)
    Electronic E            0.000 [kcal/mol]        0.000 [kJ/mol]       0.00000000 [Eh]
    Translational E         0.889 [kcal/mol]        3.718 [kJ/mol]       0.00141628 [Eh]
    Rotational E            0.889 [kcal/mol]        3.718 [kJ/mol]       0.00141628 [Eh]
    Vibrational E          64.237 [kcal/mol]      268.766 [kJ/mol]       0.10236752 [Eh]
  Correction E             66.014 [kcal/mol]      276.203 [kJ/mol]       0.10520007 [Eh]
  Total E, Electronic energy at  298.15 [K]                           -231.41564570 [Eh]

  Enthalpy, H_trans = E_trans + k_B * T
    Electronic H            0.000 [kcal/mol]        0.000 [kJ/mol]       0.00000000 [Eh]
    Translational H         1.481 [kcal/mol]        6.197 [kJ/mol]       0.00236046 [Eh]
    Rotational H            0.889 [kcal/mol]        3.718 [kJ/mol]       0.00141628 [Eh]
    Vibrational H          64.237 [kcal/mol]      268.766 [kJ/mol]       0.10236752 [Eh]
  Correction H             66.607 [kcal/mol]      278.682 [kJ/mol]       0.10614426 [Eh]
  Total H, Enthalpy at  298.15 [K]                                    -231.41470152 [Eh]

  Gibbs free energy, G = H - T * S
    Electronic G            0.000 [kcal/mol]        0.000 [kJ/mol]       0.00000000 [Eh]
    Translational G       -10.140 [kcal/mol]      -42.428 [kJ/mol]      -0.01615980 [Eh]
    Rotational G           -6.362 [kcal/mol]      -26.617 [kJ/mol]      -0.01013795 [Eh]
    Vibrational G          62.842 [kcal/mol]      262.929 [kJ/mol]       0.10014437 [Eh]
  Correction G             46.339 [kcal/mol]      193.884 [kJ/mol]       0.07384662 [Eh]
  Total G, Free enthalpy at  298.15 [K]                               -231.44699916 [Eh]

*** Psi4 exiting successfully. Buy a developer a beer!
