                               Psi4 1.3.2 release

  ==> Input File <==

--------------------------------------------------------------------------
set basis  6-31g
molecule {
0 1
   C       -0.61446        0.00000        0.00000
   C        0.61446        0.00000        0.00000
   H       -1.68923        0.00000        0.00000
   H        1.68923        0.00000        0.00000
}
energy('MP2')
frequencies('MP2')
--------------------------------------------------------------------------

    Molecular point group: d2h
  Charge       = 0
  Multiplicity = 1
  Basis Set: 6-31G
    Blend: 6-31G
  Basis Set: (6-31G AUX)
    Blend: CC-PVDZ-JKFIT
  @DF-RHF Final Energy:   -76.78939523934100
    Total Energy =                        -76.7893952393410046
  Basis Set: (6-31G AUX)
    Blend: CC-PVDZ-RI
	 Reference Energy          =     -76.7893952393410046 [Eh]
	 Singles Energy            =      -0.0000000000000000 [Eh]
	 Same-Spin Energy          =      -0.0449012192534564 [Eh]
	 Opposite-Spin Energy      =      -0.1448236986136992 [Eh]
	 Correlation Energy        =      -0.1897249178671556 [Eh]
	 Total Energy              =     -76.9791201572081576 [Eh]
	 SCS Total Energy          =     -76.9781507507619267 [Eh]
    Molecular point group: d2h
  Basis Set: 6-31G
    Blend: 6-31G
  Basis Set: (6-31G AUX)
    Blend: CC-PVDZ-JKFIT
  @DF-RHF Final Energy:   -76.78939523934102
    Total Energy =                        -76.7893952393410189
  Basis Set: (6-31G AUX)
  @DF-RHF Final Energy:   -76.78939523934102
    Total Energy =                        -76.7893952393410189
  @DF-RHF Final Energy:   -76.78927265894390
    Total Energy =                        -76.7892726589439008
  @DF-RHF Final Energy:   -76.78951248169116
    Total Energy =                        -76.7895124816911618
  @DF-RHF Final Energy:   -76.78926909283007
    Total Energy =                        -76.7892690928300823
  @DF-RHF Final Energy:   -76.78951126022949
    Total Energy =                        -76.7895112602294887
  @DF-RHF Final Energy:   -76.78939479749911
    Total Energy =                        -76.7893947974991136
  @DF-RHF Final Energy:   -76.78939479749275
    Total Energy =                        -76.7893947974927471
  @DF-RHF Final Energy:   -76.78939477931537
    Total Energy =                        -76.7893947793153728
  @DF-RHF Final Energy:   -76.78939477931007
    Total Energy =                        -76.7893947793100722
    Molecular point group: c2v
  Charge       = 0
  Multiplicity = 1
  Basis Set: 6-31G
    Blend: 6-31G
  Basis Set: (6-31G AUX)
    Blend: CC-PVDZ-JKFIT

    Orbital Energies [Eh]
    ---------------------

    Doubly Occupied:

       1A1   -11.254862     2A1   -11.251706     3A1    -1.023535
       4A1    -0.756100     5A1    -0.669535     1B2    -0.398636
       1B1    -0.398636

  @DF-RHF Final Energy:   -76.78938976580214

   => Energetics <=

    Nuclear Repulsion Energy =             24.3232393838559098
    One-Electron Energy =                -150.7192370210933916
    Two-Electron Energy =                  49.6066078714353509
    Total Energy =                        -76.7893897658021274

  Dipole Moment: [D]
     X:     0.0043      Y:     0.0000      Z:     0.0000     Total:     0.0043

  Basis Set: (6-31G AUX)
    Blend: CC-PVDZ-RI
    Molecular point group: c2v

    Geometry (in Angstrom), charge = 0, multiplicity = 1:

       Center              X                  Y                   Z               Mass
    ------------   -----------------  -----------------  -----------------  -----------------
         C           -0.614610333491     0.000000000000     0.000000000000    12.000000000000
         C            0.614309666509     0.000000000000     0.000000000000    12.000000000000
         H           -1.687440004874     0.000000000000     0.000000000000     1.007825032230
         H            1.691019995126     0.000000000000     0.000000000000     1.007825032230

  Basis Set: 6-31G
    Blend: 6-31G
  Basis Set: (6-31G AUX)
    Blend: CC-PVDZ-JKFIT
  Basis Set: (6-31G AUX)
    Blend: CC-PVDZ-JKFIT
	 Reference Energy          =     -76.7893897658021416 [Eh]
	 Singles Energy            =      -0.0000000000000000 [Eh]
	 Same-Spin Energy          =      -0.0449012279920668 [Eh]
	 Opposite-Spin Energy      =      -0.1448237513348125 [Eh]
	 Correlation Energy        =      -0.1897249793268793 [Eh]
	 Total Energy              =     -76.9791147451290243 [Eh]

	 ================> DF-SCS-MP2 Energies <==================
	-----------------------------------------------------------
	 SCS Same-Spin Scale       =       0.3333333333333333 [-]
	 SCS Opposite-Spin Scale   =       1.2000000000000000 [-]
	 SCS Same-Spin Energy      =      -0.0149670759973556 [Eh]
	 SCS Opposite-Spin Energy  =      -0.1737885016017749 [Eh]
	 SCS Correlation Energy    =      -0.1887555775991306 [Eh]
	 SCS Total Energy          =     -76.9781453434012661 [Eh]
	-----------------------------------------------------------

  -Total Gradient:
     Atom            X                  Y                   Z
    ------   -----------------  -----------------  -----------------
       1        0.009104848563     0.000000000000     0.000000000000
       2       -0.012056799893     0.000000000000     0.000000000000
       3       -0.002993301292     0.000000000000     0.000000000000
       4        0.005945252622     0.000000000000     0.000000000000

  Vibration                       6                   7                   8
  Freq [cm^-1]                 459.9327            459.9331            764.5628
  Irrep                          B2g                 B1g                 B1u
  Reduced mass [u]              1.5641              1.5641              1.0848
  Force const [mDyne/A]         0.1949              0.1949              0.3736

  Vibration                       9                   10                  11
  Freq [cm^-1]                 764.5628           1959.1976           3382.4076
  Irrep                          B2u                  Ag                 B3u
  Reduced mass [u]              1.0848              3.9712              1.0848
  Force const [mDyne/A]         0.3736              8.9810              7.3124

  Vibration                       12
  Freq [cm^-1]                3478.7061
  Irrep                           Ag
  Reduced mass [u]              1.2140
  Force const [mDyne/A]         8.6554

  ==> Thermochemistry Components <==

  Entropy, S
    Electronic S            0.000 [cal/(mol K)]        0.000 [J/(mol K)]       0.00000000 [mEh/K] (multiplicity = 1)
    Translational S        35.704 [cal/(mol K)]      149.387 [J/(mol K)]       0.05689862 [mEh/K] (mol. weight = 26.0157 [u], P = 101325.00 [Pa])
    Rotational S           10.952 [cal/(mol K)]       45.824 [J/(mol K)]       0.01745345 [mEh/K] (symmetry no. = 2)
    Vibrational S           2.011 [cal/(mol K)]        8.412 [J/(mol K)]       0.00320398 [mEh/K]
  Total S                  48.667 [cal/(mol K)]      203.623 [J/(mol K)]       0.07755604 [mEh/K]
  Correction S              0.000 [cal/(mol K)]        0.000 [J/(mol K)]       0.00000000 [mEh/K]

  Constant volume heat capacity, Cv
    Electronic Cv           0.000 [cal/(mol K)]        0.000 [J/(mol K)]       0.00000000 [mEh/K]
    Translational Cv        2.981 [cal/(mol K)]       12.472 [J/(mol K)]       0.00475022 [mEh/K]
    Rotational Cv           1.987 [cal/(mol K)]        8.314 [J/(mol K)]       0.00316681 [mEh/K]
    Vibrational Cv          4.114 [cal/(mol K)]       17.212 [J/(mol K)]       0.00655552 [mEh/K]
  Total Cv                  9.082 [cal/(mol K)]       37.998 [J/(mol K)]       0.01447255 [mEh/K]
  Correction Cv             0.000 [cal/(mol K)]        0.000 [J/(mol K)]       0.00000000 [mEh/K]

  Constant pressure heat capacity, Cp
    Electronic Cp           0.000 [cal/(mol K)]        0.000 [J/(mol K)]       0.00000000 [mEh/K]
    Translational Cp        4.968 [cal/(mol K)]       20.786 [J/(mol K)]       0.00791703 [mEh/K]
    Rotational Cp           1.987 [cal/(mol K)]        8.314 [J/(mol K)]       0.00316681 [mEh/K]
    Vibrational Cp          4.114 [cal/(mol K)]       17.212 [J/(mol K)]       0.00655552 [mEh/K]
  Total Cp                 11.069 [cal/(mol K)]       46.312 [J/(mol K)]       0.01763936 [mEh/K]
  Correction Cp             0.000 [cal/(mol K)]        0.000 [J/(mol K)]       0.00000000 [mEh/K]

  ==> Thermochemistry Energy Analysis <==

  Raw electronic energy, E0
  Total E0, Electronic energy at well bottom at 0 [K]                  -76.97912016 [Eh]

  Zero-point energy, ZPE_vib = Sum_i nu_i / 2
    Electronic ZPE          0.000 [kcal/mol]        0.000 [kJ/mol]       0.00000000 [Eh]
    Translational ZPE       0.000 [kcal/mol]        0.000 [kJ/mol]       0.00000000 [Eh]
    Rotational ZPE          0.000 [kcal/mol]        0.000 [kJ/mol]       0.00000000 [Eh]
    Vibrational ZPE        16.110 [kcal/mol]       67.405 [kJ/mol]       0.02567336 [Eh]        5634.651 [cm^-1]
  Correction ZPE           16.110 [kcal/mol]       67.405 [kJ/mol]       0.02567336 [Eh]        5634.651 [cm^-1]
  Total ZPE, Electronic energy at 0 [K]                                -76.95344680 [Eh]

  Thermal Energy, E (includes ZPE)
    Electronic E            0.000 [kcal/mol]        0.000 [kJ/mol]       0.00000000 [Eh]
    Translational E         0.889 [kcal/mol]        3.718 [kJ/mol]       0.00141628 [Eh]
    Rotational E            0.592 [kcal/mol]        2.479 [kJ/mol]       0.00094418 [Eh]
    Vibrational E          16.543 [kcal/mol]       69.217 [kJ/mol]       0.02636355 [Eh]
  Correction E             18.025 [kcal/mol]       75.415 [kJ/mol]       0.02872401 [Eh]
  Total E, Electronic energy at  298.15 [K]                            -76.95039615 [Eh]

  Enthalpy, H_trans = E_trans + k_B * T
    Electronic H            0.000 [kcal/mol]        0.000 [kJ/mol]       0.00000000 [Eh]
    Translational H         1.481 [kcal/mol]        6.197 [kJ/mol]       0.00236046 [Eh]
    Rotational H            0.592 [kcal/mol]        2.479 [kJ/mol]       0.00094418 [Eh]
    Vibrational H          16.543 [kcal/mol]       69.217 [kJ/mol]       0.02636355 [Eh]
  Correction H             18.617 [kcal/mol]       77.894 [kJ/mol]       0.02966819 [Eh]
  Total H, Enthalpy at  298.15 [K]                                     -76.94945196 [Eh]

  Gibbs free energy, G = H - T * S
    Electronic G            0.000 [kcal/mol]        0.000 [kJ/mol]       0.00000000 [Eh]
    Translational G        -9.164 [kcal/mol]      -38.342 [kJ/mol]      -0.01460386 [Eh]
    Rotational G           -2.673 [kcal/mol]      -11.183 [kJ/mol]      -0.00425956 [Eh]
    Vibrational G          15.944 [kcal/mol]       66.709 [kJ/mol]       0.02540828 [Eh]
  Correction G              4.107 [kcal/mol]       17.184 [kJ/mol]       0.00654486 [Eh]
  Total G, Free enthalpy at  298.15 [K]                                -76.97257530 [Eh]

*** Psi4 exiting successfully. Buy a developer a beer!
