                               Psi4 1.3.2 release

  ==> Input File <==

--------------------------------------------------------------------------
set basis  6-311++G**
molecule {
0 1
   O        0.00000        0.00000        0.49152
   C        0.00000        0.00000       -0.65516
}
energy('CCSD')
frequencies('CCSD')
--------------------------------------------------------------------------

    Molecular point group: c2v
  Charge       = 0
  Multiplicity = 1
  Basis Set: 6-311++G**
    Blend: 6-311++G**
  @RHF Final Energy:  -112.76673247184326
    Total Energy =                       -112.7667324718432553
      * MP2 total energy                      = -113.114956589529854
      * CCSD total energy                     = -113.119826964348619
    Molecular point group: c2v
  Basis Set: 6-311++G**
    Blend: 6-311++G**
  @RHF Final Energy:  -112.76673247184320
    Total Energy =                       -112.7667324718431985
      * MP2 total energy                      = -113.114956590312360
      * CCSD total energy                     = -113.119826968895623
  Basis Set: 6-311++G**
    Blend: 6-311++G**
  @RHF Final Energy:  -112.76673247184320
    Total Energy =                       -112.7667324718431985
      * MP2 total energy                      = -113.114956590312360
      * CCSD total energy                     = -113.119826969239540
  Basis Set: 6-311++G**
    Blend: 6-311++G**
  @RHF Final Energy:  -112.76692983766530
    Total Energy =                       -112.7669298376653018
      * MP2 total energy                      = -113.114985202403645
      * CCSD total energy                     = -113.119897271180662
  Basis Set: 6-311++G**
    Blend: 6-311++G**
  @RHF Final Energy:  -112.76653089922098
    Total Energy =                       -112.7665308992209816
      * MP2 total energy                      = -113.114923920740011
      * CCSD total energy                     = -113.119752492863441
  Basis Set: 6-311++G**
    Blend: 6-311++G**
  @RHF Final Energy:  -112.76673238395171
    Total Energy =                       -112.7667323839517053
      * MP2 total energy                      = -113.114956576809021
      * CCSD total energy                     = -113.119826937341358
    Molecular point group: cs
  Charge       = 0
  Multiplicity = 1
  Basis Set: 6-311++G**
    Blend: 6-311++G**

    Orbital Energies [Eh]
    ---------------------

    Doubly Occupied:

       1Ap   -20.670782     2Ap   -11.374418     3Ap    -1.515135
       4Ap    -0.805208     1App   -0.633963     5Ap    -0.633963
       6Ap    -0.558074

  @RHF Final Energy:  -112.76673238395176

   => Energetics <=

    Nuclear Repulsion Energy =             22.1513379928885605
    One-Electron Energy =                -197.4530539439173822
    Two-Electron Energy =                  62.5349835670770702
    Total Energy =                       -112.7667323839517621

  Dipole Moment: [D]
     X:     0.0000      Y:     0.0004      Z:    -0.4008     Total:     0.4008

      * MP2 total energy                      = -113.114956576808879
      * CCSD total energy                     = -113.119826937341202
    Molecular point group: cs

    Geometry (in Bohr), charge = 0, multiplicity = 1:

       Center              X                  Y                   Z
    ------------   -----------------  -----------------  -----------------
         O            0.000000000000    -0.000818521498     0.928844906150
         C            0.000000000000     0.001091015123    -1.238066247390

  -Total gradient:
     Atom            X                  Y                   Z
    ------   -----------------  -----------------  -----------------
       1        0.000000000000    -0.000033409733     0.037912822734
       2        0.000000000000     0.000033409733    -0.037912822735

  Vibration                       4                   5                   6
  Freq [cm^-1]                 259.6778            259.6778           2100.5542
  Irrep                           B1                  B2                  A1
  Reduced mass [u]             13.4388             13.4388             13.4388
  Force const [mDyne/A]         0.5339              0.5339             34.9363

  ==> Thermochemistry Components <==

  Entropy, S
    Electronic S            0.000 [cal/(mol K)]        0.000 [J/(mol K)]       0.00000000 [mEh/K] (multiplicity = 1)
    Translational S        35.923 [cal/(mol K)]      150.302 [J/(mol K)]       0.05724692 [mEh/K] (mol. weight = 27.9949 [u], P = 101325.00 [Pa])
    Rotational S           11.343 [cal/(mol K)]       47.458 [J/(mol K)]       0.01807582 [mEh/K] (symmetry no. = 1)
    Vibrational S           3.329 [cal/(mol K)]       13.927 [J/(mol K)]       0.00530470 [mEh/K]
  Total S                  50.594 [cal/(mol K)]      211.687 [J/(mol K)]       0.08062745 [mEh/K]
  Correction S              0.000 [cal/(mol K)]        0.000 [J/(mol K)]       0.00000000 [mEh/K]

  Constant volume heat capacity, Cv
    Electronic Cv           0.000 [cal/(mol K)]        0.000 [J/(mol K)]       0.00000000 [mEh/K]
    Translational Cv        2.981 [cal/(mol K)]       12.472 [J/(mol K)]       0.00475022 [mEh/K]
    Rotational Cv           1.987 [cal/(mol K)]        8.314 [J/(mol K)]       0.00316681 [mEh/K]
    Vibrational Cv          3.501 [cal/(mol K)]       14.647 [J/(mol K)]       0.00557892 [mEh/K]
  Total Cv                  8.469 [cal/(mol K)]       35.434 [J/(mol K)]       0.01349595 [mEh/K]
  Correction Cv             0.000 [cal/(mol K)]        0.000 [J/(mol K)]       0.00000000 [mEh/K]

  Constant pressure heat capacity, Cp
    Electronic Cp           0.000 [cal/(mol K)]        0.000 [J/(mol K)]       0.00000000 [mEh/K]
    Translational Cp        4.968 [cal/(mol K)]       20.786 [J/(mol K)]       0.00791703 [mEh/K]
    Rotational Cp           1.987 [cal/(mol K)]        8.314 [J/(mol K)]       0.00316681 [mEh/K]
    Vibrational Cp          3.501 [cal/(mol K)]       14.647 [J/(mol K)]       0.00557892 [mEh/K]
  Total Cp                 10.456 [cal/(mol K)]       43.748 [J/(mol K)]       0.01666276 [mEh/K]
  Correction Cp             0.000 [cal/(mol K)]        0.000 [J/(mol K)]       0.00000000 [mEh/K]

  ==> Thermochemistry Energy Analysis <==

  Raw electronic energy, E0
  Total E0, Electronic energy at well bottom at 0 [K]                 -113.11982697 [Eh]

  Zero-point energy, ZPE_vib = Sum_i nu_i / 2
    Electronic ZPE          0.000 [kcal/mol]        0.000 [kJ/mol]       0.00000000 [Eh]
    Translational ZPE       0.000 [kcal/mol]        0.000 [kJ/mol]       0.00000000 [Eh]
    Rotational ZPE          0.000 [kcal/mol]        0.000 [kJ/mol]       0.00000000 [Eh]
    Vibrational ZPE         3.745 [kcal/mol]       15.671 [kJ/mol]       0.00596859 [Eh]        1309.955 [cm^-1]
  Correction ZPE            3.745 [kcal/mol]       15.671 [kJ/mol]       0.00596859 [Eh]        1309.955 [cm^-1]
  Total ZPE, Electronic energy at 0 [K]                               -113.11385838 [Eh]

  Thermal Energy, E (includes ZPE)
    Electronic E            0.000 [kcal/mol]        0.000 [kJ/mol]       0.00000000 [Eh]
    Translational E         0.889 [kcal/mol]        3.718 [kJ/mol]       0.00141628 [Eh]
    Rotational E            0.592 [kcal/mol]        2.479 [kJ/mol]       0.00094418 [Eh]
    Vibrational E           4.339 [kcal/mol]       18.155 [kJ/mol]       0.00691504 [Eh]
  Correction E              5.820 [kcal/mol]       24.353 [kJ/mol]       0.00927550 [Eh]
  Total E, Electronic energy at  298.15 [K]                           -113.11055147 [Eh]

  Enthalpy, H_trans = E_trans + k_B * T
    Electronic H            0.000 [kcal/mol]        0.000 [kJ/mol]       0.00000000 [Eh]
    Translational H         1.481 [kcal/mol]        6.197 [kJ/mol]       0.00236046 [Eh]
    Rotational H            0.592 [kcal/mol]        2.479 [kJ/mol]       0.00094418 [Eh]
    Vibrational H           4.339 [kcal/mol]       18.155 [kJ/mol]       0.00691504 [Eh]
  Correction H              6.413 [kcal/mol]       26.832 [kJ/mol]       0.01021969 [Eh]
  Total H, Enthalpy at  298.15 [K]                                    -113.10960728 [Eh]

  Gibbs free energy, G = H - T * S
    Electronic G            0.000 [kcal/mol]        0.000 [kJ/mol]       0.00000000 [Eh]
    Translational G        -9.229 [kcal/mol]      -38.615 [kJ/mol]      -0.01470771 [Eh]
    Rotational G           -2.789 [kcal/mol]      -11.671 [kJ/mol]      -0.00444512 [Eh]
    Vibrational G           3.347 [kcal/mol]       14.003 [kJ/mol]       0.00533344 [Eh]
  Correction G             -8.672 [kcal/mol]      -36.283 [kJ/mol]      -0.01381939 [Eh]
  Total G, Free enthalpy at  298.15 [K]                               -113.13364636 [Eh]

*** Psi4 exiting successfully. Buy a developer a beer!
