                               Psi4 1.3.2 release

  ==> Input File <==

--------------------------------------------------------------------------
set basis  6-311++G**
molecule {
0 1
   O        0.00000        0.00000        0.49152
   C        0.00000        0.00000       -0.65516
}
energy('MP2')
frequencies('MP2')
--------------------------------------------------------------------------

    Molecular point group: c2v
  Charge       = 0
  Multiplicity = 1
  Basis Set: 6-311++G**
    Blend: 6-311++G**
  Basis Set: (6-311++G** AUX)
    Blend: AUG-CC-PVTZ-JKFIT
  @DF-RHF Final Energy:  -112.76666103144726
    Total Energy =                       -112.7666610314472564
  Basis Set: (6-311++G** AUX)
    Blend: AUG-CC-PVTZ-RI
	 Reference Energy          =    -112.7666610314472564 [Eh]
	 Singles Energy            =      -0.0000000000000000 [Eh]
	 Same-Spin Energy          =      -0.0862377632975935 [Eh]
	 Opposite-Spin Energy      =      -0.2619609710608698 [Eh]
	 Correlation Energy        =      -0.3481987343584633 [Eh]
	 Total Energy              =    -113.1148597658057184 [Eh]
	 SCS Total Energy          =    -113.1097601178195049 [Eh]
    Molecular point group: c2v
  Basis Set: 6-311++G**
    Blend: 6-311++G**
  Basis Set: (6-311++G** AUX)
    Blend: AUG-CC-PVTZ-JKFIT
  @DF-RHF Final Energy:  -112.76666103144716
    Total Energy =                       -112.7666610314471569
  Basis Set: (6-311++G** AUX)
  @DF-RHF Final Energy:  -112.76666103144716
    Total Energy =                       -112.7666610314471569
  @DF-RHF Final Energy:  -112.76685822669410
    Total Energy =                       -112.7668582266940973
    Molecular point group: c2v
  Charge       = 0
  Multiplicity = 1
  Basis Set: 6-311++G**
    Blend: 6-311++G**
  Basis Set: (6-311++G** AUX)
    Blend: AUG-CC-PVTZ-JKFIT

    Orbital Energies [Eh]
    ---------------------

    Doubly Occupied:

       1A1   -20.670812     2A1   -11.374918     3A1    -1.514462
       4A1    -0.805121     1B1    -0.633527     1B2    -0.633527
       5A1    -0.558197

  @DF-RHF Final Energy:  -112.76645962920098

   => Energetics <=

    Nuclear Repulsion Energy =             22.1318434565547548
    One-Electron Energy =                -197.4154761586477207
    Two-Electron Energy =                  62.5171730728919925
    Total Energy =                       -112.7664596292009804

  Dipole Moment: [D]
     X:     0.0000      Y:     0.0000      Z:    -0.4064     Total:     0.4064

  Basis Set: (6-311++G** AUX)
    Blend: AUG-CC-PVTZ-RI
    Molecular point group: c2v

    Geometry (in Angstrom), charge = 0, multiplicity = 1:

       Center              X                  Y                   Z               Mass
    ------------   -----------------  -----------------  -----------------  -----------------
         O            0.000000000000     0.000000000000     0.491956699505    15.994914619570
         C            0.000000000000     0.000000000000    -0.655733783759    12.000000000000

  Basis Set: 6-311++G**
    Blend: 6-311++G**
  Basis Set: (6-311++G** AUX)
    Blend: AUG-CC-PVTZ-JKFIT
  Basis Set: (6-311++G** AUX)
    Blend: AUG-CC-PVTZ-JKFIT
	 Reference Energy          =    -112.7664596292009804 [Eh]
	 Singles Energy            =      -0.0000000000000000 [Eh]
	 Same-Spin Energy          =      -0.0862878451784648 [Eh]
	 Opposite-Spin Energy      =      -0.2620797893640880 [Eh]
	 Correlation Energy        =      -0.3483676345425528 [Eh]
	 Total Energy              =    -113.1148272637435355 [Eh]

	 ================> DF-SCS-MP2 Energies <==================
	-----------------------------------------------------------
	 SCS Same-Spin Scale       =       0.3333333333333333 [-]
	 SCS Opposite-Spin Scale   =       1.2000000000000000 [-]
	 SCS Same-Spin Energy      =      -0.0287626150594883 [Eh]
	 SCS Opposite-Spin Energy  =      -0.3144957472369057 [Eh]
	 SCS Correlation Energy    =      -0.3432583622963939 [Eh]
	 SCS Total Energy          =    -113.1097179914973765 [Eh]
	-----------------------------------------------------------

  -Total Gradient:
     Atom            X                  Y                   Z
    ------   -----------------  -----------------  -----------------
       1        0.000000000000     0.000000000000     0.018078656515
       2        0.000000000000    -0.000000000000    -0.018078656515

  Vibration                       6
  Freq [cm^-1]                2070.9745
  Irrep                           A1
  Reduced mass [u]             13.4388
  Force const [mDyne/A]        33.9593

  ==> Thermochemistry Components <==

  Entropy, S
    Electronic S            0.000 [cal/(mol K)]        0.000 [J/(mol K)]       0.00000000 [mEh/K] (multiplicity = 1)
    Translational S        35.923 [cal/(mol K)]      150.302 [J/(mol K)]       0.05724692 [mEh/K] (mol. weight = 27.9949 [u], P = 101325.00 [Pa])
    Rotational S           11.343 [cal/(mol K)]       47.458 [J/(mol K)]       0.01807582 [mEh/K] (symmetry no. = 1)
    Vibrational S           0.001 [cal/(mol K)]        0.004 [J/(mol K)]       0.00000159 [mEh/K]
  Total S                  47.267 [cal/(mol K)]      197.764 [J/(mol K)]       0.07532434 [mEh/K]
  Correction S              0.000 [cal/(mol K)]        0.000 [J/(mol K)]       0.00000000 [mEh/K]

  Constant volume heat capacity, Cv
    Electronic Cv           0.000 [cal/(mol K)]        0.000 [J/(mol K)]       0.00000000 [mEh/K]
    Translational Cv        2.981 [cal/(mol K)]       12.472 [J/(mol K)]       0.00475022 [mEh/K]
    Rotational Cv           1.987 [cal/(mol K)]        8.314 [J/(mol K)]       0.00316681 [mEh/K]
    Vibrational Cv          0.009 [cal/(mol K)]        0.038 [J/(mol K)]       0.00001445 [mEh/K]
  Total Cv                  4.977 [cal/(mol K)]       20.824 [J/(mol K)]       0.00793148 [mEh/K]
  Correction Cv             0.000 [cal/(mol K)]        0.000 [J/(mol K)]       0.00000000 [mEh/K]

  Constant pressure heat capacity, Cp
    Electronic Cp           0.000 [cal/(mol K)]        0.000 [J/(mol K)]       0.00000000 [mEh/K]
    Translational Cp        4.968 [cal/(mol K)]       20.786 [J/(mol K)]       0.00791703 [mEh/K]
    Rotational Cp           1.987 [cal/(mol K)]        8.314 [J/(mol K)]       0.00316681 [mEh/K]
    Vibrational Cp          0.009 [cal/(mol K)]        0.038 [J/(mol K)]       0.00001445 [mEh/K]
  Total Cp                  6.964 [cal/(mol K)]       29.139 [J/(mol K)]       0.01109829 [mEh/K]
  Correction Cp             0.000 [cal/(mol K)]        0.000 [J/(mol K)]       0.00000000 [mEh/K]

  ==> Thermochemistry Energy Analysis <==

  Raw electronic energy, E0
  Total E0, Electronic energy at well bottom at 0 [K]                 -113.11485977 [Eh]

  Zero-point energy, ZPE_vib = Sum_i nu_i / 2
    Electronic ZPE          0.000 [kcal/mol]        0.000 [kJ/mol]       0.00000000 [Eh]
    Translational ZPE       0.000 [kcal/mol]        0.000 [kJ/mol]       0.00000000 [Eh]
    Rotational ZPE          0.000 [kcal/mol]        0.000 [kJ/mol]       0.00000000 [Eh]
    Vibrational ZPE         2.961 [kcal/mol]       12.387 [kJ/mol]       0.00471803 [Eh]        1035.487 [cm^-1]
  Correction ZPE            2.961 [kcal/mol]       12.387 [kJ/mol]       0.00471803 [Eh]        1035.487 [cm^-1]
  Total ZPE, Electronic energy at 0 [K]                               -113.11014174 [Eh]

  Thermal Energy, E (includes ZPE)
    Electronic E            0.000 [kcal/mol]        0.000 [kJ/mol]       0.00000000 [Eh]
    Translational E         0.889 [kcal/mol]        3.718 [kJ/mol]       0.00141628 [Eh]
    Rotational E            0.592 [kcal/mol]        2.479 [kJ/mol]       0.00094418 [Eh]
    Vibrational E           2.961 [kcal/mol]       12.388 [kJ/mol]       0.00471846 [Eh]
  Correction E              4.442 [kcal/mol]       18.586 [kJ/mol]       0.00707892 [Eh]
  Total E, Electronic energy at  298.15 [K]                           -113.10778085 [Eh]

  Enthalpy, H_trans = E_trans + k_B * T
    Electronic H            0.000 [kcal/mol]        0.000 [kJ/mol]       0.00000000 [Eh]
    Translational H         1.481 [kcal/mol]        6.197 [kJ/mol]       0.00236046 [Eh]
    Rotational H            0.592 [kcal/mol]        2.479 [kJ/mol]       0.00094418 [Eh]
    Vibrational H           2.961 [kcal/mol]       12.388 [kJ/mol]       0.00471846 [Eh]
  Correction H              5.035 [kcal/mol]       21.065 [kJ/mol]       0.00802310 [Eh]
  Total H, Enthalpy at  298.15 [K]                                    -113.10683666 [Eh]

  Gibbs free energy, G = H - T * S
    Electronic G            0.000 [kcal/mol]        0.000 [kJ/mol]       0.00000000 [Eh]
    Translational G        -9.229 [kcal/mol]      -38.615 [kJ/mol]      -0.01470771 [Eh]
    Rotational G           -2.789 [kcal/mol]      -11.671 [kJ/mol]      -0.00444512 [Eh]
    Vibrational G           2.961 [kcal/mol]       12.387 [kJ/mol]       0.00471798 [Eh]
  Correction G             -9.058 [kcal/mol]      -37.899 [kJ/mol]      -0.01443485 [Eh]
  Total G, Free enthalpy at  298.15 [K]                               -113.12929461 [Eh]

*** Psi4 exiting successfully. Buy a developer a beer!
