                               Psi4 1.3.2 release

  ==> Input File <==

--------------------------------------------------------------------------
set basis  aug-cc-pVDZ
molecule {
0 1
   C       -0.61446        0.00000        0.00000
   C        0.61446        0.00000        0.00000
   H       -1.68923        0.00000        0.00000
   H        1.68923        0.00000        0.00000
}
energy('m06-2x')
frequencies('m06-2x')
--------------------------------------------------------------------------

    Molecular point group: d2h
  Charge       = 0
  Multiplicity = 1
  Basis Set: AUG-CC-PVDZ
    Blend: AUG-CC-PVDZ
  Basis Set: (AUG-CC-PVDZ AUX)
    Blend: AUG-CC-PVDZ-JKFIT
  @DF-RKS Final Energy:   -77.30144225783739
    Total Energy =                        -77.3014422578373939
    Molecular point group: d2h
  Basis Set: AUG-CC-PVDZ
    Blend: AUG-CC-PVDZ
  Basis Set: (AUG-CC-PVDZ AUX)
    Blend: AUG-CC-PVDZ-JKFIT
  @DF-RKS Final Energy:   -77.30144225791162
    Total Energy =                        -77.3014422579116314
  Basis Set: AUG-CC-PVDZ
    Blend: AUG-CC-PVDZ
  Basis Set: (AUG-CC-PVDZ AUX)
    Blend: AUG-CC-PVDZ-JKFIT
  Basis Set: AUG-CC-PVDZ
    Blend: AUG-CC-PVDZ
  Basis Set: (AUG-CC-PVDZ AUX)
    Blend: AUG-CC-PVDZ-JKFIT
  @DF-RKS Final Energy:   -77.30144225791162
    Total Energy =                        -77.3014422579116314
  Basis Set: AUG-CC-PVDZ
  @DF-RKS Final Energy:   -77.30134962677332
    Total Energy =                        -77.3013496267733160
  @DF-RKS Final Energy:   -77.30152972216197
    Total Energy =                        -77.3015297221619733
  @DF-RKS Final Energy:   -77.30142047004124
    Total Energy =                        -77.3014204700412364
  @DF-RKS Final Energy:   -77.30145395637234
    Total Energy =                        -77.3014539563723417
  @DF-RKS Final Energy:   -77.30144215683798
    Total Energy =                        -77.3014421568379788
  @DF-RKS Final Energy:   -77.30144215139211
    Total Energy =                        -77.3014421513921093
  @DF-RKS Final Energy:   -77.30144215673728
    Total Energy =                        -77.3014421567372949
  @DF-RKS Final Energy:   -77.30144215139724
    Total Energy =                        -77.3014421513972394
  @DF-RKS Final Energy:   -77.30144198418202
    Total Energy =                        -77.3014419841820342
  Basis Set: (AUG-CC-PVDZ AUX)
    Blend: AUG-CC-PVDZ-JKFIT
  Basis Set: AUG-CC-PVDZ
    Blend: AUG-CC-PVDZ
  Basis Set: (AUG-CC-PVDZ AUX)
    Blend: AUG-CC-PVDZ-JKFIT
  @DF-RKS Final Energy:   -77.30144198420669
    Total Energy =                        -77.3014419842066900
  Basis Set: AUG-CC-PVDZ
    Blend: AUG-CC-PVDZ
  Basis Set: (AUG-CC-PVDZ AUX)
    Blend: AUG-CC-PVDZ-JKFIT
    Molecular point group: c2v
  Charge       = 0
  Multiplicity = 1
  Basis Set: AUG-CC-PVDZ
    Blend: AUG-CC-PVDZ
  Basis Set: (AUG-CC-PVDZ AUX)
    Blend: AUG-CC-PVDZ-JKFIT

    Orbital Energies [Eh]
    ---------------------

    Doubly Occupied:

       1A1   -10.569241     2A1   -10.567004     3A1    -0.846193
       4A1    -0.646424     5A1    -0.560632     1B1    -0.351499
       1B2    -0.351499

  @DF-RKS Final Energy:   -77.30143678334507

   => Energetics <=

    Nuclear Repulsion Energy =             24.3232393838559098
    One-Electron Energy =                -150.9241873975612407
    Two-Electron Energy =                  54.8147590608994975
    DFT Exchange-Correlation Energy =      -5.5152478305392281
    Empirical Dispersion Energy =           0.0000000000000000
    VV10 Nonlocal Energy =                  0.0000000000000000
    Total Energy =                        -77.3014367833450677

  Dipole Moment: [D]
     X:     0.0043      Y:     0.0000      Z:     0.0000     Total:     0.0043

    Molecular point group: c2v

    Geometry (in Angstrom), charge = 0, multiplicity = 1:

       Center              X                  Y                   Z               Mass
    ------------   -----------------  -----------------  -----------------  -----------------
         C           -0.614610333491     0.000000000000     0.000000000000    12.000000000000
         C            0.614309666509     0.000000000000     0.000000000000    12.000000000000
         H           -1.687440004874     0.000000000000     0.000000000000     1.007825032230
         H            1.691019995126     0.000000000000     0.000000000000     1.007825032230

  Basis Set: AUG-CC-PVDZ
    Blend: AUG-CC-PVDZ
  Basis Set: (AUG-CC-PVDZ AUX)
    Blend: AUG-CC-PVDZ-JKFIT

  -Total Gradient:
     Atom            X                  Y                   Z
    ------   -----------------  -----------------  -----------------
       1       -0.045463085143     0.000000000000     0.000000000000
       2        0.042479360582     0.000000000000     0.000000000000
       3       -0.000843799511     0.000000000000     0.000000000000
       4        0.003825893606     0.000000000000     0.000000000000

  Vibration                       4                   5                   6
  Freq [cm^-1]                 234.7683            234.7687            617.5713
  Irrep                          B2g                 B1g                 B1g
  Reduced mass [u]              1.8947              1.8947              1.8255
  Force const [mDyne/A]         0.0615              0.0615              0.4102

  Vibration                       7                   8                   9
  Freq [cm^-1]                 617.5715            756.8029            756.8033
  Irrep                          B2g                 B1u                 B2u
  Reduced mass [u]              1.8255              1.0848              1.0848
  Force const [mDyne/A]         0.4102              0.3661              0.3661

  Vibration                       10                  11                  12
  Freq [cm^-1]                1976.8792           3399.7049           3493.4885
  Irrep                           Ag                 B3u                  Ag
  Reduced mass [u]              3.9432              1.0848              1.2166
  Force const [mDyne/A]         9.0794              7.3874              8.7481

  ==> Thermochemistry Components <==

  Entropy, S
    Electronic S            0.000 [cal/(mol K)]        0.000 [J/(mol K)]       0.00000000 [mEh/K] (multiplicity = 1)
    Translational S        35.704 [cal/(mol K)]      149.387 [J/(mol K)]       0.05689862 [mEh/K] (mol. weight = 26.0157 [u], P = 101325.00 [Pa])
    Rotational S           10.952 [cal/(mol K)]       45.824 [J/(mol K)]       0.01745345 [mEh/K] (symmetry no. = 2)
    Vibrational S           5.018 [cal/(mol K)]       20.994 [J/(mol K)]       0.00799610 [mEh/K]
  Total S                  51.674 [cal/(mol K)]      216.205 [J/(mol K)]       0.08234816 [mEh/K]
  Correction S              0.000 [cal/(mol K)]        0.000 [J/(mol K)]       0.00000000 [mEh/K]

  Constant volume heat capacity, Cv
    Electronic Cv           0.000 [cal/(mol K)]        0.000 [J/(mol K)]       0.00000000 [mEh/K]
    Translational Cv        2.981 [cal/(mol K)]       12.472 [J/(mol K)]       0.00475022 [mEh/K]
    Rotational Cv           1.987 [cal/(mol K)]        8.314 [J/(mol K)]       0.00316681 [mEh/K]
    Vibrational Cv          7.027 [cal/(mol K)]       29.401 [J/(mol K)]       0.01119816 [mEh/K]
  Total Cv                 11.995 [cal/(mol K)]       50.187 [J/(mol K)]       0.01911519 [mEh/K]
  Correction Cv             0.000 [cal/(mol K)]        0.000 [J/(mol K)]       0.00000000 [mEh/K]

  Constant pressure heat capacity, Cp
    Electronic Cp           0.000 [cal/(mol K)]        0.000 [J/(mol K)]       0.00000000 [mEh/K]
    Translational Cp        4.968 [cal/(mol K)]       20.786 [J/(mol K)]       0.00791703 [mEh/K]
    Rotational Cp           1.987 [cal/(mol K)]        8.314 [J/(mol K)]       0.00316681 [mEh/K]
    Vibrational Cp          7.027 [cal/(mol K)]       29.401 [J/(mol K)]       0.01119816 [mEh/K]
  Total Cp                 13.982 [cal/(mol K)]       58.501 [J/(mol K)]       0.02228200 [mEh/K]
  Correction Cp             0.000 [cal/(mol K)]        0.000 [J/(mol K)]       0.00000000 [mEh/K]

  ==> Thermochemistry Energy Analysis <==

  Raw electronic energy, E0
  Total E0, Electronic energy at well bottom at 0 [K]                  -77.30144226 [Eh]

  Zero-point energy, ZPE_vib = Sum_i nu_i / 2
    Electronic ZPE          0.000 [kcal/mol]        0.000 [kJ/mol]       0.00000000 [Eh]
    Translational ZPE       0.000 [kcal/mol]        0.000 [kJ/mol]       0.00000000 [Eh]
    Rotational ZPE          0.000 [kcal/mol]        0.000 [kJ/mol]       0.00000000 [Eh]
    Vibrational ZPE        17.281 [kcal/mol]       72.304 [kJ/mol]       0.02753931 [Eh]        6044.179 [cm^-1]
  Correction ZPE           17.281 [kcal/mol]       72.304 [kJ/mol]       0.02753931 [Eh]        6044.179 [cm^-1]
  Total ZPE, Electronic energy at 0 [K]                                -77.27390295 [Eh]

  Thermal Energy, E (includes ZPE)
    Electronic E            0.000 [kcal/mol]        0.000 [kJ/mol]       0.00000000 [Eh]
    Translational E         0.889 [kcal/mol]        3.718 [kJ/mol]       0.00141628 [Eh]
    Rotational E            0.592 [kcal/mol]        2.479 [kJ/mol]       0.00094418 [Eh]
    Vibrational E          18.224 [kcal/mol]       76.248 [kJ/mol]       0.02904114 [Eh]
  Correction E             19.705 [kcal/mol]       82.445 [kJ/mol]       0.03140160 [Eh]
  Total E, Electronic energy at  298.15 [K]                            -77.27004065 [Eh]

  Enthalpy, H_trans = E_trans + k_B * T
    Electronic H            0.000 [kcal/mol]        0.000 [kJ/mol]       0.00000000 [Eh]
    Translational H         1.481 [kcal/mol]        6.197 [kJ/mol]       0.00236046 [Eh]
    Rotational H            0.592 [kcal/mol]        2.479 [kJ/mol]       0.00094418 [Eh]
    Vibrational H          18.224 [kcal/mol]       76.248 [kJ/mol]       0.02904114 [Eh]
  Correction H             20.297 [kcal/mol]       84.924 [kJ/mol]       0.03234579 [Eh]
  Total H, Enthalpy at  298.15 [K]                                     -77.26909647 [Eh]

  Gibbs free energy, G = H - T * S
    Electronic G            0.000 [kcal/mol]        0.000 [kJ/mol]       0.00000000 [Eh]
    Translational G        -9.164 [kcal/mol]      -38.342 [kJ/mol]      -0.01460386 [Eh]
    Rotational G           -2.673 [kcal/mol]      -11.183 [kJ/mol]      -0.00425956 [Eh]
    Vibrational G          16.728 [kcal/mol]       69.988 [kJ/mol]       0.02665711 [Eh]
  Correction G              4.891 [kcal/mol]       20.462 [kJ/mol]       0.00779368 [Eh]
  Total G, Free enthalpy at  298.15 [K]                                -77.29364857 [Eh]

*** Psi4 exiting successfully. Buy a developer a beer!
