                               Psi4 1.3.2 release

  ==> Input File <==

--------------------------------------------------------------------------
set basis  aug-cc-pVDZ
molecule {
0 1
   O        0.00000        0.00000        0.49152
   C        0.00000        0.00000       -0.65516
}
energy('scf')
frequencies('scf')
--------------------------------------------------------------------------

    Molecular point group: c2v
  Charge       = 0
  Multiplicity = 1
  Basis Set: AUG-CC-PVDZ
    Blend: AUG-CC-PVDZ
  Basis Set: (AUG-CC-PVDZ AUX)
    Blend: AUG-CC-PVDZ-JKFIT
  @DF-RHF Final Energy:  -112.75207941171368
    Total Energy =                       -112.7520794117136802
    Molecular point group: c2v
  Basis Set: AUG-CC-PVDZ
    Blend: AUG-CC-PVDZ
  Basis Set: (AUG-CC-PVDZ AUX)
    Blend: AUG-CC-PVDZ-JKFIT
  @DF-RHF Final Energy:  -112.75207941183754
    Total Energy =                       -112.7520794118375420
  Basis Set: AUG-CC-PVDZ
    Blend: AUG-CC-PVDZ
  Basis Set: (AUG-CC-PVDZ AUX)
    Blend: AUG-CC-PVDZ-JKFIT

  -Total Gradient:
     Atom            X                  Y                   Z
    ------   -----------------  -----------------  -----------------
       1        0.000000000000     0.000000000000     0.089959094224
       2       -0.000000000000     0.000000000000    -0.089959094224

  Charge       = 0
  Multiplicity = 1
  Basis Set: AUG-CC-PVDZ
    Blend: AUG-CC-PVDZ
  Basis Set: (AUG-CC-PVDZ AUX)
    Blend: AUG-CC-PVDZ-JKFIT

    Orbital Energies [Eh]
    ---------------------

    Doubly Occupied:

       1A1   -20.679065     2A1   -11.381676     3A1    -1.517179
       4A1    -0.806724     1B1    -0.633080     1B2    -0.633080
       5A1    -0.556819

  @DF-RHF Final Energy:  -112.75207941183754

   => Energetics <=

    Nuclear Repulsion Energy =             22.1513465937837957
    One-Electron Energy =                -197.3916086027570316
    Two-Electron Energy =                  62.4881825971357046
    Total Energy =                       -112.7520794118375420

  Dipole Moment: [D]
     X:     0.0000      Y:     0.0000      Z:    -0.3516     Total:     0.3516

    Molecular point group: c2v
  Basis Set: AUG-CC-PVDZ
    Blend: AUG-CC-PVDZ
  Basis Set: (AUG-CC-PVDZ AUX)
    Blend: AUG-CC-PVDZ-JKFIT
  Basis Set: (AUG-CC-PVDZ AUX)
    Blend: AUG-CC-PVDZ-JKFIT
    Molecular point group: c2v

    Geometry (in Angstrom), charge = 0, multiplicity = 1:

       Center              X                  Y                   Z               Mass
    ------------   -----------------  -----------------  -----------------  -----------------
         O            0.000000000000     0.000000000000     0.491523556581    15.994914619570
         C            0.000000000000     0.000000000000    -0.655156443419    12.000000000000

  Basis Set: AUG-CC-PVDZ
    Blend: AUG-CC-PVDZ
  Basis Set: (AUG-CC-PVDZ AUX)
    Blend: AUG-CC-PVDZ-JKFIT

  Vibration                       4                   5                   6
  Freq [cm^-1]                 400.0039            400.0039           2122.7361
  Irrep                           B2                  B1                  A1
  Reduced mass [u]             13.4388             13.4388             13.4388
  Force const [mDyne/A]         1.2669              1.2669             35.6781

  IR activ [km/mol]             0.5793              0.5793             152.1553

  ==> Thermochemistry Components <==

  Entropy, S
    Electronic S            0.000 [cal/(mol K)]        0.000 [J/(mol K)]       0.00000000 [mEh/K] (multiplicity = 1)
    Translational S        35.923 [cal/(mol K)]      150.302 [J/(mol K)]       0.05724692 [mEh/K] (mol. weight = 27.9949 [u], P = 101325.00 [Pa])
    Rotational S           11.343 [cal/(mol K)]       47.458 [J/(mol K)]       0.01807582 [mEh/K] (symmetry no. = 1)
    Vibrational S           1.926 [cal/(mol K)]        8.059 [J/(mol K)]       0.00306938 [mEh/K]
  Total S                  49.192 [cal/(mol K)]      205.818 [J/(mol K)]       0.07839213 [mEh/K]
  Correction S              0.000 [cal/(mol K)]        0.000 [J/(mol K)]       0.00000000 [mEh/K]

  Constant volume heat capacity, Cv
    Electronic Cv           0.000 [cal/(mol K)]        0.000 [J/(mol K)]       0.00000000 [mEh/K]
    Translational Cv        2.981 [cal/(mol K)]       12.472 [J/(mol K)]       0.00475022 [mEh/K]
    Rotational Cv           1.987 [cal/(mol K)]        8.314 [J/(mol K)]       0.00316681 [mEh/K]
    Vibrational Cv          2.948 [cal/(mol K)]       12.333 [J/(mol K)]       0.00469735 [mEh/K]
  Total Cv                  7.916 [cal/(mol K)]       33.119 [J/(mol K)]       0.01261438 [mEh/K]
  Correction Cv             0.000 [cal/(mol K)]        0.000 [J/(mol K)]       0.00000000 [mEh/K]

  Constant pressure heat capacity, Cp
    Electronic Cp           0.000 [cal/(mol K)]        0.000 [J/(mol K)]       0.00000000 [mEh/K]
    Translational Cp        4.968 [cal/(mol K)]       20.786 [J/(mol K)]       0.00791703 [mEh/K]
    Rotational Cp           1.987 [cal/(mol K)]        8.314 [J/(mol K)]       0.00316681 [mEh/K]
    Vibrational Cp          2.948 [cal/(mol K)]       12.333 [J/(mol K)]       0.00469735 [mEh/K]
  Total Cp                  9.903 [cal/(mol K)]       41.433 [J/(mol K)]       0.01578119 [mEh/K]
  Correction Cp             0.000 [cal/(mol K)]        0.000 [J/(mol K)]       0.00000000 [mEh/K]

  ==> Thermochemistry Energy Analysis <==

  Raw electronic energy, E0
  Total E0, Electronic energy at well bottom at 0 [K]                 -112.75207941 [Eh]

  Zero-point energy, ZPE_vib = Sum_i nu_i / 2
    Electronic ZPE          0.000 [kcal/mol]        0.000 [kJ/mol]       0.00000000 [Eh]
    Translational ZPE       0.000 [kcal/mol]        0.000 [kJ/mol]       0.00000000 [Eh]
    Rotational ZPE          0.000 [kcal/mol]        0.000 [kJ/mol]       0.00000000 [Eh]
    Vibrational ZPE         4.178 [kcal/mol]       17.482 [kJ/mol]       0.00665850 [Eh]        1461.372 [cm^-1]
  Correction ZPE            4.178 [kcal/mol]       17.482 [kJ/mol]       0.00665850 [Eh]        1461.372 [cm^-1]
  Total ZPE, Electronic energy at 0 [K]                               -112.74542091 [Eh]

  Thermal Energy, E (includes ZPE)
    Electronic E            0.000 [kcal/mol]        0.000 [kJ/mol]       0.00000000 [Eh]
    Translational E         0.889 [kcal/mol]        3.718 [kJ/mol]       0.00141628 [Eh]
    Rotational E            0.592 [kcal/mol]        2.479 [kJ/mol]       0.00094418 [Eh]
    Vibrational E           4.567 [kcal/mol]       19.107 [kJ/mol]       0.00727755 [Eh]
  Correction E              6.048 [kcal/mol]       25.305 [kJ/mol]       0.00963801 [Eh]
  Total E, Electronic energy at  298.15 [K]                           -112.74244140 [Eh]

  Enthalpy, H_trans = E_trans + k_B * T
    Electronic H            0.000 [kcal/mol]        0.000 [kJ/mol]       0.00000000 [Eh]
    Translational H         1.481 [kcal/mol]        6.197 [kJ/mol]       0.00236046 [Eh]
    Rotational H            0.592 [kcal/mol]        2.479 [kJ/mol]       0.00094418 [Eh]
    Vibrational H           4.567 [kcal/mol]       19.107 [kJ/mol]       0.00727755 [Eh]
  Correction H              6.640 [kcal/mol]       27.784 [kJ/mol]       0.01058219 [Eh]
  Total H, Enthalpy at  298.15 [K]                                    -112.74149722 [Eh]

  Gibbs free energy, G = H - T * S
    Electronic G            0.000 [kcal/mol]        0.000 [kJ/mol]       0.00000000 [Eh]
    Translational G        -9.229 [kcal/mol]      -38.615 [kJ/mol]      -0.01470771 [Eh]
    Rotational G           -2.789 [kcal/mol]      -11.671 [kJ/mol]      -0.00444512 [Eh]
    Vibrational G           3.992 [kcal/mol]       16.705 [kJ/mol]       0.00636241 [Eh]
  Correction G             -8.026 [kcal/mol]      -33.581 [kJ/mol]      -0.01279042 [Eh]
  Total G, Free enthalpy at  298.15 [K]                               -112.76486983 [Eh]

*** Psi4 exiting successfully. Buy a developer a beer!
