                               Psi4 1.3.2 release

  ==> Input File <==

--------------------------------------------------------------------------
set basis  cc-pVTZ
molecule {
0 1
   C       -0.61446        0.00000        0.00000
   C        0.61446        0.00000        0.00000
   H       -1.68923        0.00000        0.00000
   H        1.68923        0.00000        0.00000
}
energy('scf')
frequencies('scf')
--------------------------------------------------------------------------

    Molecular point group: d2h
  Charge       = 0
  Multiplicity = 1
  Basis Set: CC-PVTZ
    Blend: CC-PVTZ
  Basis Set: (CC-PVTZ AUX)
    Blend: CC-PVTZ-JKFIT
  @DF-RHF Final Energy:   -76.84495064913321
    Total Energy =                        -76.8449506491332102
    Molecular point group: d2h
  Basis Set: CC-PVTZ
    Blend: CC-PVTZ
  Basis Set: (CC-PVTZ AUX)
    Blend: CC-PVTZ-JKFIT
  @DF-RHF Final Energy:   -76.84495064917915
    Total Energy =                        -76.8449506491791681
  Basis Set: CC-PVTZ
    Blend: CC-PVTZ
  Basis Set: (CC-PVTZ AUX)
    Blend: CC-PVTZ-JKFIT

  -Total Gradient:
     Atom            X                  Y                   Z
    ------   -----------------  -----------------  -----------------
       1       -0.087097151034    -0.000000000000     0.000000000000
       2        0.087097151034     0.000000000000     0.000000000000
       3       -0.015930871138    -0.000000000000     0.000000000000
       4        0.015930871138     0.000000000000     0.000000000000

  Charge       = 0
  Multiplicity = 1
  Basis Set: CC-PVTZ
    Blend: CC-PVTZ
  Basis Set: (CC-PVTZ AUX)
    Blend: CC-PVTZ-JKFIT

    Orbital Energies [Eh]
    ---------------------

    Doubly Occupied:

       1Ag   -11.251007     1B3u  -11.247755     2Ag    -1.020469
       2B3u   -0.765345     3Ag    -0.674971     1B1u   -0.403734
       1B2u   -0.403734

  @DF-RHF Final Energy:   -76.84495064917915

   => Energetics <=

    Nuclear Repulsion Energy =             24.3232181713792350
    One-Electron Energy =                -150.8023079359117844
    Two-Electron Energy =                  49.6341391153533849
    Total Energy =                        -76.8449506491791681

  Dipole Moment: [D]
     X:     0.0000      Y:     0.0000      Z:     0.0000     Total:     0.0000

    Molecular point group: d2h
  Basis Set: CC-PVTZ
    Blend: CC-PVTZ
  Basis Set: (CC-PVTZ AUX)
    Blend: CC-PVTZ-JKFIT
  Basis Set: (CC-PVTZ AUX)
    Blend: CC-PVTZ-JKFIT
    Molecular point group: d2h

    Geometry (in Angstrom), charge = 0, multiplicity = 1:

       Center              X                  Y                   Z               Mass
    ------------   -----------------  -----------------  -----------------  -----------------
         C           -0.614460000000    -0.000000000000     0.000000000000    12.000000000000
         C            0.614460000000     0.000000000000     0.000000000000    12.000000000000
         H           -1.689230000000    -0.000000000000     0.000000000000     1.007825032230
         H            1.689230000000     0.000000000000     0.000000000000     1.007825032230

  Basis Set: CC-PVTZ
    Blend: CC-PVTZ
  Basis Set: (CC-PVTZ AUX)
    Blend: CC-PVTZ-JKFIT

  Vibration                       4                   5                   6
  Freq [cm^-1]                 389.0650            389.0650            861.0563
  Irrep                                                                  B2g
  Reduced mass [u]              2.1667              2.1667              1.6285
  Force const [mDyne/A]         0.1932              0.1932              0.7114

  IR activ [km/mol]             0.0000              0.0000              0.0000

  Vibration                       7                   8                   9
  Freq [cm^-1]                 861.0563            951.9759            951.9759
  Irrep                          B1g                 B2u                 B1u
  Reduced mass [u]              1.6285              1.0848              1.0848
  Force const [mDyne/A]         0.7114              0.5792              0.5792

  IR activ [km/mol]             0.0000             115.2715            115.2715

  Vibration                       10                  11                  12
  Freq [cm^-1]                1944.0594           3362.7765           3453.3456
  Irrep                           Ag                 B3u                  Ag
  Reduced mass [u]              4.0412              1.0848              1.2076
  Force const [mDyne/A]         8.9986              7.2277              8.4848

  IR activ [km/mol]             0.0000             112.6874             0.0000

  ==> Thermochemistry Components <==

  Entropy, S
    Electronic S            0.000 [cal/(mol K)]        0.000 [J/(mol K)]       0.00000000 [mEh/K] (multiplicity = 1)
    Translational S        35.704 [cal/(mol K)]      149.387 [J/(mol K)]       0.05689862 [mEh/K] (mol. weight = 26.0157 [u], P = 101325.00 [Pa])
    Rotational S           10.952 [cal/(mol K)]       45.824 [J/(mol K)]       0.01745345 [mEh/K] (symmetry no. = 2)
    Vibrational S           2.562 [cal/(mol K)]       10.720 [J/(mol K)]       0.00408291 [mEh/K]
  Total S                  49.219 [cal/(mol K)]      205.931 [J/(mol K)]       0.07843498 [mEh/K]
  Correction S              0.000 [cal/(mol K)]        0.000 [J/(mol K)]       0.00000000 [mEh/K]

  Constant volume heat capacity, Cv
    Electronic Cv           0.000 [cal/(mol K)]        0.000 [J/(mol K)]       0.00000000 [mEh/K]
    Translational Cv        2.981 [cal/(mol K)]       12.472 [J/(mol K)]       0.00475022 [mEh/K]
    Rotational Cv           1.987 [cal/(mol K)]        8.314 [J/(mol K)]       0.00316681 [mEh/K]
    Vibrational Cv          4.978 [cal/(mol K)]       20.829 [J/(mol K)]       0.00793344 [mEh/K]
  Total Cv                  9.946 [cal/(mol K)]       41.615 [J/(mol K)]       0.01585047 [mEh/K]
  Correction Cv             0.000 [cal/(mol K)]        0.000 [J/(mol K)]       0.00000000 [mEh/K]

  Constant pressure heat capacity, Cp
    Electronic Cp           0.000 [cal/(mol K)]        0.000 [J/(mol K)]       0.00000000 [mEh/K]
    Translational Cp        4.968 [cal/(mol K)]       20.786 [J/(mol K)]       0.00791703 [mEh/K]
    Rotational Cp           1.987 [cal/(mol K)]        8.314 [J/(mol K)]       0.00316681 [mEh/K]
    Vibrational Cp          4.978 [cal/(mol K)]       20.829 [J/(mol K)]       0.00793344 [mEh/K]
  Total Cp                 11.934 [cal/(mol K)]       49.930 [J/(mol K)]       0.01901728 [mEh/K]
  Correction Cp             0.000 [cal/(mol K)]        0.000 [J/(mol K)]       0.00000000 [mEh/K]

  ==> Thermochemistry Energy Analysis <==

  Raw electronic energy, E0
  Total E0, Electronic energy at well bottom at 0 [K]                  -76.84495065 [Eh]

  Zero-point energy, ZPE_vib = Sum_i nu_i / 2
    Electronic ZPE          0.000 [kcal/mol]        0.000 [kJ/mol]       0.00000000 [Eh]
    Translational ZPE       0.000 [kcal/mol]        0.000 [kJ/mol]       0.00000000 [Eh]
    Rotational ZPE          0.000 [kcal/mol]        0.000 [kJ/mol]       0.00000000 [Eh]
    Vibrational ZPE        18.819 [kcal/mol]       78.740 [kJ/mol]       0.02999065 [Eh]        6582.188 [cm^-1]
  Correction ZPE           18.819 [kcal/mol]       78.740 [kJ/mol]       0.02999065 [Eh]        6582.188 [cm^-1]
  Total ZPE, Electronic energy at 0 [K]                                -76.81495999 [Eh]

  Thermal Energy, E (includes ZPE)
    Electronic E            0.000 [kcal/mol]        0.000 [kJ/mol]       0.00000000 [Eh]
    Translational E         0.889 [kcal/mol]        3.718 [kJ/mol]       0.00141628 [Eh]
    Rotational E            0.592 [kcal/mol]        2.479 [kJ/mol]       0.00094418 [Eh]
    Vibrational E          19.356 [kcal/mol]       80.984 [kJ/mol]       0.03084534 [Eh]
  Correction E             20.837 [kcal/mol]       87.182 [kJ/mol]       0.03320580 [Eh]
  Total E, Electronic energy at  298.15 [K]                            -76.81174485 [Eh]

  Enthalpy, H_trans = E_trans + k_B * T
    Electronic H            0.000 [kcal/mol]        0.000 [kJ/mol]       0.00000000 [Eh]
    Translational H         1.481 [kcal/mol]        6.197 [kJ/mol]       0.00236046 [Eh]
    Rotational H            0.592 [kcal/mol]        2.479 [kJ/mol]       0.00094418 [Eh]
    Vibrational H          19.356 [kcal/mol]       80.984 [kJ/mol]       0.03084534 [Eh]
  Correction H             21.429 [kcal/mol]       89.661 [kJ/mol]       0.03414999 [Eh]
  Total H, Enthalpy at  298.15 [K]                                     -76.81080066 [Eh]

  Gibbs free energy, G = H - T * S
    Electronic G            0.000 [kcal/mol]        0.000 [kJ/mol]       0.00000000 [Eh]
    Translational G        -9.164 [kcal/mol]      -38.342 [kJ/mol]      -0.01460386 [Eh]
    Rotational G           -2.673 [kcal/mol]      -11.183 [kJ/mol]      -0.00425956 [Eh]
    Vibrational G          18.592 [kcal/mol]       77.788 [kJ/mol]       0.02962802 [Eh]
  Correction G              6.755 [kcal/mol]       28.262 [kJ/mol]       0.01076460 [Eh]
  Total G, Free enthalpy at  298.15 [K]                                -76.83418605 [Eh]

*** Psi4 exiting successfully. Buy a developer a beer!
