                               Psi4 1.3.2 release

  ==> Input File <==

--------------------------------------------------------------------------
set basis  6-31G
molecule {
0 1
   C        0.32153        0.81326        0.00000
   C       -0.86505       -0.12817        0.00000
   C        0.54353       -0.68508        0.00000
   H        0.53795        1.36069       -0.92039
   H        0.53795        1.36069        0.92039
   H       -1.44742       -0.21449        0.92034
   H       -1.44742       -0.21449       -0.92034
   H        0.90937       -1.14629       -0.92037
   H        0.90937       -1.14629        0.92037
}
energy('CCSD')
frequencies('CCSD')
--------------------------------------------------------------------------

    Molecular point group: cs
  Charge       = 0
  Multiplicity = 1
  Basis Set: 6-31G
    Blend: 6-31G
  @RHF Final Energy:  -117.00617168168898
    Total Energy =                       -117.0061716816889827
      * MP2 total energy                      = -117.282365756509350
      * CCSD total energy                     = -117.317784140307154
    Molecular point group: cs
  Basis Set: 6-31G
    Blend: 6-31G
  @RHF Final Energy:  -117.00617168168893
    Total Energy =                       -117.0061716816889259
      * MP2 total energy                      = -117.282365756004978
      * CCSD total energy                     = -117.317784141598182
  Basis Set: 6-31G
    Blend: 6-31G
  @RHF Final Energy:  -117.00617168168897
    Total Energy =                       -117.0061716816889685
      * MP2 total energy                      = -117.282365756004950
      * CCSD total energy                     = -117.317784139723855
  Basis Set: 6-31G
    Blend: 6-31G
  @RHF Final Energy:  -117.00616794543515
    Total Energy =                       -117.0061679454351520
      * MP2 total energy                      = -117.282356049288452
      * CCSD total energy                     = -117.317774300451646
  @RHF Final Energy:  -117.00617408216728
    Total Energy =                       -117.0061740821672771
      * MP2 total energy                      = -117.282374234389508
      * CCSD total energy                     = -117.317792765941377
  @RHF Final Energy:  -117.00616436494019
    Total Energy =                       -117.0061643649401901
      * MP2 total energy                      = -117.282345881459477
      * CCSD total energy                     = -117.317763980933591
  @RHF Final Energy:  -117.00617718587407
    Total Energy =                       -117.0061771858740656
      * MP2 total energy                      = -117.282383881251860
      * CCSD total energy                     = -117.317802565225264
  @RHF Final Energy:  -117.00617729413574
    Total Energy =                       -117.0061772941357390
      * MP2 total energy                      = -117.282384405701421
      * CCSD total energy                     = -117.317803101971180
  @RHF Final Energy:  -117.00616393844713
    Total Energy =                       -117.0061639384471306
      * MP2 total energy                      = -117.282345046600568
      * CCSD total energy                     = -117.317763141797599
  @RHF Final Energy:  -117.00616949321567
    Total Energy =                       -117.0061694932156655
      * MP2 total energy                      = -117.282361025072660
      * CCSD total energy                     = -117.317779363694399
  @RHF Final Energy:  -117.00626073461969
    Total Energy =                       -117.0062607346196870
      * MP2 total energy                      = -117.282392898345975
      * CCSD total energy                     = -117.317796826415631
  @RHF Final Energy:  -117.00616961049737
    Total Energy =                       -117.0061696104973663
      * MP2 total energy                      = -117.282363763364728
      * CCSD total energy                     = -117.317782185606134
  @RHF Final Energy:  -117.00616939058094
    Total Energy =                       -117.0061693905809364
      * MP2 total energy                      = -117.282363533376028
      * CCSD total energy                     = -117.317781958904845
  @RHF Final Energy:  -117.00616869096056
    Total Energy =                       -117.0061686909605640
      * MP2 total energy                      = -117.282362801739225
      * CCSD total energy                     = -117.317781237722855
  @RHF Final Energy:  -117.00617074809627
    Total Energy =                       -117.0061707480962667
      * MP2 total energy                      = -117.282364897131458
      * CCSD total energy                     = -117.317783308039026
  @RHF Final Energy:  -117.00616938989666
    Total Energy =                       -117.0061693898966553
      * MP2 total energy                      = -117.282363484333331
      * CCSD total energy                     = -117.317781907298354
  Basis Set: 6-31G
    Blend: 6-31G
  @RHF Final Energy:  -117.00616954441564
    Total Energy =                       -117.0061695444156413
      * MP2 total energy                      = -117.282363648758391
      * CCSD total energy                     = -117.317782071935795
  Basis Set: 6-31G
    Blend: 6-31G
  @RHF Final Energy:  -117.00616926433783
    Total Energy =                       -117.0061692643378279
      * MP2 total energy                      = -117.282363353937569
      * CCSD total energy                     = -117.317781777861214
  Basis Set: 6-31G
    Blend: 6-31G
  @RHF Final Energy:  -117.00617095678611
    Total Energy =                       -117.0061709567861072
      * MP2 total energy                      = -117.282365116605888
      * CCSD total energy                     = -117.317783526360188
    Molecular point group: c1
  Charge       = 0
  Multiplicity = 1
  Basis Set: 6-31G
    Blend: 6-31G

    Orbital Energies [Eh]
    ---------------------

    Doubly Occupied:

       1A    -11.229649     2A    -11.228732     3A    -11.228727
       4A     -1.134538     5A     -0.813730     6A     -0.813725
       7A     -0.666967     8A     -0.620074     9A     -0.507786
      10A     -0.507771    11A     -0.416158    12A     -0.416150

  @RHF Final Energy:  -117.00616899376043

   => Energetics <=

    Nuclear Repulsion Energy =             75.2814718714328848
    One-Electron Energy =                -305.4072732150152660
    Two-Electron Energy =                 113.1196323498219698
    Total Energy =                       -117.0061689937604257

  Dipole Moment: [D]
     X:    -0.0001      Y:    -0.0001      Z:    -0.0007     Total:     0.0007

      * MP2 total energy                      = -117.282363077965414
      * CCSD total energy                     = -117.317781506210935
    Molecular point group: c1

    Geometry (in Bohr), charge = 0, multiplicity = 1:

       Center              X                  Y                   Z
    ------------   -----------------  -----------------  -----------------
         C            0.607607306914     1.536841428687     0.000000000000
         C           -1.634703919032    -0.242203437603     0.000000000000
         C            1.027126506766    -1.294610814132     0.000000000000
         H            1.016581834986     2.571334201546    -1.739285028610
         H            1.016581834986     2.571334201546     1.739285028610
         H           -2.735223722715    -0.405324596752     1.738052835028
         H           -2.735223722715    -0.405324596752    -1.740328249580
         H            1.715550587285    -2.165019564084    -1.738109526812
         H            1.721377237722    -2.167323236824     1.740384941364

  -Total gradient:
     Atom            X                  Y                   Z
    ------   -----------------  -----------------  -----------------
       1       -0.004605674704    -0.011647812070    -0.000000875899
       2        0.012415622924     0.001843124661     0.000428105088
       3       -0.007785788117     0.009822644899    -0.001239137352
       4       -0.000508474461    -0.001282770896    -0.002308235185
       5       -0.000504339502    -0.001271596095     0.002306241942
       6        0.001530496396     0.000200505409     0.002015834626
       7        0.001169983918     0.000193778689    -0.002578545209
       8       -0.001233633411     0.001444293318    -0.001612583982
       9       -0.000478193042     0.000697832087     0.002989195971

  Vibration                       7                   8                   9
  Freq [cm^-1]                 813.8674            813.8832            910.1471
  Irrep                          App                 App                 App
  Reduced mass [u]              1.0204              1.0204              1.0454
  Force const [mDyne/A]         0.3982              0.3982              0.5102

  Vibration                       10                  11                  12
  Freq [cm^-1]                 916.1557            916.1941           1162.2491
  Irrep                           Ap                  Ap                  Ap
  Reduced mass [u]              3.6459              3.6459              1.2749
  Force const [mDyne/A]         1.8030              1.8031              1.0147

  Vibration                       13                  14                  15
  Freq [cm^-1]                1162.2608           1180.9098           1208.0826
  Irrep                           Ap                  Ap                 App
  Reduced mass [u]              1.2749              1.4254              1.0078
  Force const [mDyne/A]         1.0147              1.1712              0.8666

  Vibration                       16                  17                  18
  Freq [cm^-1]                1255.6056           1268.8124           1268.8170
  Irrep                           Ap                 App                 App
  Reduced mass [u]              2.9080              1.4606              1.4606
  Force const [mDyne/A]         2.7012              1.3854              1.3855

  Vibration                       19                  20                  21
  Freq [cm^-1]                1536.2903           1536.3138           1572.9825
  Irrep                           Ap                  Ap                  Ap
  Reduced mass [u]              1.0879              1.0879              1.2708
  Force const [mDyne/A]         1.5129              1.5129              1.8525

  Vibration                       22                  23                  24
  Freq [cm^-1]                3112.3845           3112.4057           3127.3050
  Irrep                           Ap                  Ap                  Ap
  Reduced mass [u]              1.0510              1.0510              1.0672
  Force const [mDyne/A]         5.9982              5.9984              6.1497

  Vibration                       25                  26                  27
  Freq [cm^-1]                3193.6694           3193.6787           3217.0961
  Irrep                          App                 App                 App
  Reduced mass [u]              1.1155              1.1155              1.1146
  Force const [mDyne/A]         6.7032              6.7033              6.7969

  ==> Thermochemistry Components <==

  Entropy, S
    Electronic S            0.000 [cal/(mol K)]        0.000 [J/(mol K)]       0.00000000 [mEh/K] (multiplicity = 1)
    Translational S        37.135 [cal/(mol K)]      155.375 [J/(mol K)]       0.05917914 [mEh/K] (mol. weight = 42.0470 [u], P = 101325.00 [Pa])
    Rotational S           21.699 [cal/(mol K)]       90.789 [J/(mol K)]       0.03457982 [mEh/K] (symmetry no. = 1)
    Vibrational S           1.094 [cal/(mol K)]        4.576 [J/(mol K)]       0.00174307 [mEh/K]
  Total S                  59.928 [cal/(mol K)]      250.741 [J/(mol K)]       0.09550203 [mEh/K]
  Correction S              0.000 [cal/(mol K)]        0.000 [J/(mol K)]       0.00000000 [mEh/K]

  Constant volume heat capacity, Cv
    Electronic Cv           0.000 [cal/(mol K)]        0.000 [J/(mol K)]       0.00000000 [mEh/K]
    Translational Cv        2.981 [cal/(mol K)]       12.472 [J/(mol K)]       0.00475022 [mEh/K]
    Rotational Cv           2.981 [cal/(mol K)]       12.472 [J/(mol K)]       0.00475022 [mEh/K]
    Vibrational Cv          4.268 [cal/(mol K)]       17.858 [J/(mol K)]       0.00680158 [mEh/K]
  Total Cv                 10.230 [cal/(mol K)]       42.801 [J/(mol K)]       0.01630202 [mEh/K]
  Correction Cv             0.000 [cal/(mol K)]        0.000 [J/(mol K)]       0.00000000 [mEh/K]

  Constant pressure heat capacity, Cp
    Electronic Cp           0.000 [cal/(mol K)]        0.000 [J/(mol K)]       0.00000000 [mEh/K]
    Translational Cp        4.968 [cal/(mol K)]       20.786 [J/(mol K)]       0.00791703 [mEh/K]
    Rotational Cp           2.981 [cal/(mol K)]       12.472 [J/(mol K)]       0.00475022 [mEh/K]
    Vibrational Cp          4.268 [cal/(mol K)]       17.858 [J/(mol K)]       0.00680158 [mEh/K]
  Total Cp                 12.217 [cal/(mol K)]       51.115 [J/(mol K)]       0.01946883 [mEh/K]
  Correction Cp             0.000 [cal/(mol K)]        0.000 [J/(mol K)]       0.00000000 [mEh/K]

  ==> Thermochemistry Energy Analysis <==

  Raw electronic energy, E0
  Total E0, Electronic energy at well bottom at 0 [K]                 -117.31778414 [Eh]

  Zero-point energy, ZPE_vib = Sum_i nu_i / 2
    Electronic ZPE          0.000 [kcal/mol]        0.000 [kJ/mol]       0.00000000 [Eh]
    Translational ZPE       0.000 [kcal/mol]        0.000 [kJ/mol]       0.00000000 [Eh]
    Rotational ZPE          0.000 [kcal/mol]        0.000 [kJ/mol]       0.00000000 [Eh]
    Vibrational ZPE        52.150 [kcal/mol]      218.194 [kJ/mol]       0.08310553 [Eh]       18239.555 [cm^-1]
  Correction ZPE           52.150 [kcal/mol]      218.194 [kJ/mol]       0.08310553 [Eh]       18239.555 [cm^-1]
  Total ZPE, Electronic energy at 0 [K]                               -117.23467861 [Eh]

  Thermal Energy, E (includes ZPE)
    Electronic E            0.000 [kcal/mol]        0.000 [kJ/mol]       0.00000000 [Eh]
    Translational E         0.889 [kcal/mol]        3.718 [kJ/mol]       0.00141628 [Eh]
    Rotational E            0.889 [kcal/mol]        3.718 [kJ/mol]       0.00141628 [Eh]
    Vibrational E          52.417 [kcal/mol]      219.314 [kJ/mol]       0.08353222 [Eh]
  Correction E             54.195 [kcal/mol]      226.751 [kJ/mol]       0.08636477 [Eh]
  Total E, Electronic energy at  298.15 [K]                           -117.23141937 [Eh]

  Enthalpy, H_trans = E_trans + k_B * T
    Electronic H            0.000 [kcal/mol]        0.000 [kJ/mol]       0.00000000 [Eh]
    Translational H         1.481 [kcal/mol]        6.197 [kJ/mol]       0.00236046 [Eh]
    Rotational H            0.889 [kcal/mol]        3.718 [kJ/mol]       0.00141628 [Eh]
    Vibrational H          52.417 [kcal/mol]      219.314 [kJ/mol]       0.08353222 [Eh]
  Correction H             54.787 [kcal/mol]      229.230 [kJ/mol]       0.08730896 [Eh]
  Total H, Enthalpy at  298.15 [K]                                    -117.23047518 [Eh]

  Gibbs free energy, G = H - T * S
    Electronic G            0.000 [kcal/mol]        0.000 [kJ/mol]       0.00000000 [Eh]
    Translational G        -9.591 [kcal/mol]      -40.128 [kJ/mol]      -0.01528380 [Eh]
    Rotational G           -5.581 [kcal/mol]      -23.350 [kJ/mol]      -0.00889370 [Eh]
    Vibrational G          52.091 [kcal/mol]      217.949 [kJ/mol]       0.08301252 [Eh]
  Correction G             36.920 [kcal/mol]      154.471 [kJ/mol]       0.05883503 [Eh]
  Total G, Free enthalpy at  298.15 [K]                               -117.25894911 [Eh]

*** Psi4 exiting successfully. Buy a developer a beer!
