                               Psi4 1.3.2 release

  ==> Input File <==

--------------------------------------------------------------------------
set basis  6-31G
molecule {
0 1
   O        0.00000        0.00000       -0.06797
   H        0.74903        0.00000        0.53936
   H       -0.74903        0.00000        0.53936
}
energy('B3LYP')
frequencies('B3LYP')

--------------------------------------------------------------------------

    Molecular point group: c2v
  Charge       = 0
  Multiplicity = 1
  Basis Set: 6-31G
    Blend: 6-31G
  Basis Set: (6-31G AUX)
    Blend: CC-PVDZ-JKFIT
  @DF-RKS Final Energy:   -76.38460189663944
    Total Energy =                        -76.3846018966394382
    Molecular point group: c2v
  Basis Set: 6-31G
    Blend: 6-31G
  Basis Set: (6-31G AUX)
    Blend: CC-PVDZ-JKFIT
  @DF-RKS Final Energy:   -76.38460189664703
    Total Energy =                        -76.3846018966470268
  Basis Set: 6-31G
    Blend: 6-31G
  Basis Set: (6-31G AUX)
    Blend: CC-PVDZ-JKFIT
  Basis Set: 6-31G
    Blend: 6-31G
  Basis Set: (6-31G AUX)
    Blend: CC-PVDZ-JKFIT
  @DF-RKS Final Energy:   -76.38460189664703
    Total Energy =                        -76.3846018966470268
  Basis Set: 6-31G
  @DF-RKS Final Energy:   -76.38460550036395
    Total Energy =                        -76.3846055003639606
  @DF-RKS Final Energy:   -76.38459231665823
    Total Energy =                        -76.3845923166582281
  @DF-RKS Final Energy:   -76.38445702474743
    Total Energy =                        -76.3844570247474337
  Basis Set: (6-31G AUX)
    Blend: CC-PVDZ-JKFIT
  Basis Set: 6-31G
    Blend: 6-31G
  Basis Set: (6-31G AUX)
    Blend: CC-PVDZ-JKFIT
  @DF-RKS Final Energy:   -76.38473649139650
    Total Energy =                        -76.3847364913964810
  Basis Set: 6-31G
    Blend: 6-31G
  Basis Set: (6-31G AUX)
    Blend: CC-PVDZ-JKFIT
    Molecular point group: cs
  Charge       = 0
  Multiplicity = 1
  Basis Set: 6-31G
    Blend: 6-31G
  Basis Set: (6-31G AUX)
    Blend: CC-PVDZ-JKFIT

    Orbital Energies [Eh]
    ---------------------

    Doubly Occupied:

       1Ap   -19.136031     2Ap    -1.019032     3Ap    -0.523910
       4Ap    -0.361533     1App   -0.292954

  @DF-RKS Final Energy:   -76.38459466435188

   => Energetics <=

    Nuclear Repulsion Energy =              9.1334682877742281
    One-Electron Energy =                -122.9377842992981016
    Two-Electron Energy =                  44.9846428005596479
    DFT Exchange-Correlation Energy =      -7.5649214533876483
    Empirical Dispersion Energy =           0.0000000000000000
    VV10 Nonlocal Energy =                  0.0000000000000000
    Total Energy =                        -76.3845946643518801

  Dipole Moment: [D]
     X:     0.0006      Y:     0.0000      Z:     2.4939     Total:     2.4939

    Molecular point group: cs

    Geometry (in Angstrom), charge = 0, multiplicity = 1:

       Center              X                  Y                   Z               Mass
    ------------   -----------------  -----------------  -----------------  -----------------
         O           -0.000175859669     0.000000000000    -0.067969259994    15.994914619570
         H            0.750425510279     0.000000000000     0.540492250436     1.007825032230
         H           -0.747634489721     0.000000000000     0.538229229576     1.007825032230

  Basis Set: 6-31G
    Blend: 6-31G
  Basis Set: (6-31G AUX)
    Blend: CC-PVDZ-JKFIT

  -Total Gradient:
     Atom            X                  Y                   Z
    ------   -----------------  -----------------  -----------------
       1       -0.003103347682     0.000000000000     0.001767563497
       2       -0.018294252403     0.000000000000     0.000337112526
       3        0.021395328089     0.000000000000    -0.002121136058

  Vibration                       7                   8                   9
  Freq [cm^-1]                1648.5230           3802.8409           3910.2330
  Irrep                           A1                  A1                  B1
  Reduced mass [u]              1.0869              1.0413              1.0793
  Force const [mDyne/A]         1.7403              8.8723              9.7228

  ==> Thermochemistry Components <==

  Entropy, S
    Electronic S            0.000 [cal/(mol K)]        0.000 [J/(mol K)]       0.00000000 [mEh/K] (multiplicity = 1)
    Translational S        34.608 [cal/(mol K)]      144.801 [J/(mol K)]       0.05515177 [mEh/K] (mol. weight = 18.0106 [u], P = 101325.00 [Pa])
    Rotational S           10.508 [cal/(mol K)]       43.968 [J/(mol K)]       0.01674635 [mEh/K] (symmetry no. = 2)
    Vibrational S           0.006 [cal/(mol K)]        0.026 [J/(mol K)]       0.00000995 [mEh/K]
  Total S                  45.123 [cal/(mol K)]      188.795 [J/(mol K)]       0.07190808 [mEh/K]
  Correction S              0.000 [cal/(mol K)]        0.000 [J/(mol K)]       0.00000000 [mEh/K]

  Constant volume heat capacity, Cv
    Electronic Cv           0.000 [cal/(mol K)]        0.000 [J/(mol K)]       0.00000000 [mEh/K]
    Translational Cv        2.981 [cal/(mol K)]       12.472 [J/(mol K)]       0.00475022 [mEh/K]
    Rotational Cv           2.981 [cal/(mol K)]       12.472 [J/(mol K)]       0.00475022 [mEh/K]
    Vibrational Cv          0.044 [cal/(mol K)]        0.185 [J/(mol K)]       0.00007038 [mEh/K]
  Total Cv                  6.006 [cal/(mol K)]       25.128 [J/(mol K)]       0.00957081 [mEh/K]
  Correction Cv             0.000 [cal/(mol K)]        0.000 [J/(mol K)]       0.00000000 [mEh/K]

  Constant pressure heat capacity, Cp
    Electronic Cp           0.000 [cal/(mol K)]        0.000 [J/(mol K)]       0.00000000 [mEh/K]
    Translational Cp        4.968 [cal/(mol K)]       20.786 [J/(mol K)]       0.00791703 [mEh/K]
    Rotational Cp           2.981 [cal/(mol K)]       12.472 [J/(mol K)]       0.00475022 [mEh/K]
    Vibrational Cp          0.044 [cal/(mol K)]        0.185 [J/(mol K)]       0.00007038 [mEh/K]
  Total Cp                  7.993 [cal/(mol K)]       33.443 [J/(mol K)]       0.01273762 [mEh/K]
  Correction Cp             0.000 [cal/(mol K)]        0.000 [J/(mol K)]       0.00000000 [mEh/K]

  ==> Thermochemistry Energy Analysis <==

  Raw electronic energy, E0
  Total E0, Electronic energy at well bottom at 0 [K]                  -76.38460190 [Eh]

  Zero-point energy, ZPE_vib = Sum_i nu_i / 2
    Electronic ZPE          0.000 [kcal/mol]        0.000 [kJ/mol]       0.00000000 [Eh]
    Translational ZPE       0.000 [kcal/mol]        0.000 [kJ/mol]       0.00000000 [Eh]
    Rotational ZPE          0.000 [kcal/mol]        0.000 [kJ/mol]       0.00000000 [Eh]
    Vibrational ZPE        13.383 [kcal/mol]       55.995 [kJ/mol]       0.02132729 [Eh]        4680.798 [cm^-1]
  Correction ZPE           13.383 [kcal/mol]       55.995 [kJ/mol]       0.02132729 [Eh]        4680.798 [cm^-1]
  Total ZPE, Electronic energy at 0 [K]                                -76.36327461 [Eh]

  Thermal Energy, E (includes ZPE)
    Electronic E            0.000 [kcal/mol]        0.000 [kJ/mol]       0.00000000 [Eh]
    Translational E         0.889 [kcal/mol]        3.718 [kJ/mol]       0.00141628 [Eh]
    Rotational E            0.889 [kcal/mol]        3.718 [kJ/mol]       0.00141628 [Eh]
    Vibrational E          13.385 [kcal/mol]       56.002 [kJ/mol]       0.02132992 [Eh]
  Correction E             15.162 [kcal/mol]       63.439 [kJ/mol]       0.02416248 [Eh]
  Total E, Electronic energy at  298.15 [K]                            -76.36043942 [Eh]

  Enthalpy, H_trans = E_trans + k_B * T
    Electronic H            0.000 [kcal/mol]        0.000 [kJ/mol]       0.00000000 [Eh]
    Translational H         1.481 [kcal/mol]        6.197 [kJ/mol]       0.00236046 [Eh]
    Rotational H            0.889 [kcal/mol]        3.718 [kJ/mol]       0.00141628 [Eh]
    Vibrational H          13.385 [kcal/mol]       56.002 [kJ/mol]       0.02132992 [Eh]
  Correction H             15.755 [kcal/mol]       65.918 [kJ/mol]       0.02510666 [Eh]
  Total H, Enthalpy at  298.15 [K]                                     -76.35949524 [Eh]

  Gibbs free energy, G = H - T * S
    Electronic G            0.000 [kcal/mol]        0.000 [kJ/mol]       0.00000000 [Eh]
    Translational G        -8.837 [kcal/mol]      -36.975 [kJ/mol]      -0.01408304 [Eh]
    Rotational G           -2.244 [kcal/mol]       -9.390 [kJ/mol]      -0.00357665 [Eh]
    Vibrational G          13.383 [kcal/mol]       55.994 [kJ/mol]       0.02132696 [Eh]
  Correction G              2.301 [kcal/mol]        9.628 [kJ/mol]       0.00366727 [Eh]
  Total G, Free enthalpy at  298.15 [K]                                -76.38093463 [Eh]

*** Psi4 exiting successfully. Buy a developer a beer!
