                               Psi4 1.3.2 release

  ==> Input File <==

--------------------------------------------------------------------------
set basis  aug-cc-pVDZ
molecule {
0 1
   C       -0.61446        0.00000        0.00000
   C        0.61446        0.00000        0.00000
   H       -1.68923        0.00000        0.00000
   H        1.68923        0.00000        0.00000
}
energy('B3LYP')
frequencies('B3LYP')
--------------------------------------------------------------------------

    Molecular point group: d2h
  Charge       = 0
  Multiplicity = 1
  Basis Set: AUG-CC-PVDZ
    Blend: AUG-CC-PVDZ
  Basis Set: (AUG-CC-PVDZ AUX)
    Blend: AUG-CC-PVDZ-JKFIT
  @DF-RKS Final Energy:   -77.33777599505660
    Total Energy =                        -77.3377759950566031
    Molecular point group: d2h
  Basis Set: AUG-CC-PVDZ
    Blend: AUG-CC-PVDZ
  Basis Set: (AUG-CC-PVDZ AUX)
    Blend: AUG-CC-PVDZ-JKFIT
  @DF-RKS Final Energy:   -77.33777599522085
    Total Energy =                        -77.3377759952208379
  Basis Set: AUG-CC-PVDZ
    Blend: AUG-CC-PVDZ
  Basis Set: (AUG-CC-PVDZ AUX)
    Blend: AUG-CC-PVDZ-JKFIT
  Basis Set: AUG-CC-PVDZ
    Blend: AUG-CC-PVDZ
  Basis Set: (AUG-CC-PVDZ AUX)
    Blend: AUG-CC-PVDZ-JKFIT
  @DF-RKS Final Energy:   -77.33777599522085
    Total Energy =                        -77.3377759952208379
  Basis Set: AUG-CC-PVDZ
  @DF-RKS Final Energy:   -77.33770116067463
    Total Energy =                        -77.3377011606746407
  @DF-RKS Final Energy:   -77.33784576241568
    Total Energy =                        -77.3378457624156965
  @DF-RKS Final Energy:   -77.33775228793209
    Total Energy =                        -77.3377522879320907
  @DF-RKS Final Energy:   -77.33778973049033
    Total Energy =                        -77.3377897304903286
  @DF-RKS Final Energy:   -77.33777591211360
    Total Energy =                        -77.3377759121135995
  @DF-RKS Final Energy:   -77.33777590361173
    Total Energy =                        -77.3377759036117283
  @DF-RKS Final Energy:   -77.33777591200815
    Total Energy =                        -77.3377759120081549
  @DF-RKS Final Energy:   -77.33777590361814
    Total Energy =                        -77.3377759036181374
  @DF-RKS Final Energy:   -77.33777573589984
    Total Energy =                        -77.3377757358998394
  Basis Set: (AUG-CC-PVDZ AUX)
    Blend: AUG-CC-PVDZ-JKFIT
  Basis Set: AUG-CC-PVDZ
    Blend: AUG-CC-PVDZ
  Basis Set: (AUG-CC-PVDZ AUX)
    Blend: AUG-CC-PVDZ-JKFIT
  @DF-RKS Final Energy:   -77.33777573592813
    Total Energy =                        -77.3377757359281475
  Basis Set: AUG-CC-PVDZ
    Blend: AUG-CC-PVDZ
  Basis Set: (AUG-CC-PVDZ AUX)
    Blend: AUG-CC-PVDZ-JKFIT
    Molecular point group: c2v
  Charge       = 0
  Multiplicity = 1
  Basis Set: AUG-CC-PVDZ
    Blend: AUG-CC-PVDZ
  Basis Set: (AUG-CC-PVDZ AUX)
    Blend: AUG-CC-PVDZ-JKFIT

    Orbital Energies [Eh]
    ---------------------

    Doubly Occupied:

       1A1   -10.211053     2A1   -10.209084     3A1    -0.757237
       4A1    -0.575144     5A1    -0.501252     1B1    -0.296561
       1B2    -0.296561

  @DF-RKS Final Energy:   -77.33777058509678

   => Energetics <=

    Nuclear Repulsion Energy =             24.3232393838559098
    One-Electron Energy =                -150.9511046293488619
    Two-Electron Energy =                  58.5620631010677286
    DFT Exchange-Correlation Energy =      -9.2719684406715572
    Empirical Dispersion Energy =           0.0000000000000000
    VV10 Nonlocal Energy =                  0.0000000000000000
    Total Energy =                        -77.3377705850967772

  Dipole Moment: [D]
     X:     0.0041      Y:     0.0000      Z:     0.0000     Total:     0.0041

    Molecular point group: c2v

    Geometry (in Angstrom), charge = 0, multiplicity = 1:

       Center              X                  Y                   Z               Mass
    ------------   -----------------  -----------------  -----------------  -----------------
         C           -0.614610333491     0.000000000000     0.000000000000    12.000000000000
         C            0.614309666509     0.000000000000     0.000000000000    12.000000000000
         H           -1.687440004874     0.000000000000     0.000000000000     1.007825032230
         H            1.691019995126     0.000000000000     0.000000000000     1.007825032230

  Basis Set: AUG-CC-PVDZ
    Blend: AUG-CC-PVDZ
  Basis Set: (AUG-CC-PVDZ AUX)
    Blend: AUG-CC-PVDZ-JKFIT

  -Total Gradient:
     Atom            X                  Y                   Z
    ------   -----------------  -----------------  -----------------
       1       -0.036903027949     0.000000000000     0.000000000000
       2        0.033952186313     0.000000000000     0.000000000000
       3       -0.001176258143     0.000000000000     0.000000000000
       4        0.004127122039     0.000000000000     0.000000000000

  Vibration                       4                   5                   6
  Freq [cm^-1]                 218.6192            218.6192            567.1142
  Irrep                          B2g                 B1g                 B1g
  Reduced mass [u]              1.9654              1.9654              1.7644
  Force const [mDyne/A]         0.0553              0.0553              0.3343

  Vibration                       7                   8                   9
  Freq [cm^-1]                 567.1144            740.1319            740.1323
  Irrep                          B2g                 B1u                 B2u
  Reduced mass [u]              1.7644              1.0848              1.0848
  Force const [mDyne/A]         0.3343              0.3501              0.3501

  Vibration                       10                  11                  12
  Freq [cm^-1]                1957.2454           3381.7836           3473.5169
  Irrep                           Ag                 B3u                  Ag
  Reduced mass [u]              3.9734              1.0848              1.2137
  Force const [mDyne/A]         8.9682              7.3097              8.6281

  ==> Thermochemistry Components <==

  Entropy, S
    Electronic S            0.000 [cal/(mol K)]        0.000 [J/(mol K)]       0.00000000 [mEh/K] (multiplicity = 1)
    Translational S        35.704 [cal/(mol K)]      149.387 [J/(mol K)]       0.05689862 [mEh/K] (mol. weight = 26.0157 [u], P = 101325.00 [Pa])
    Rotational S           10.952 [cal/(mol K)]       45.824 [J/(mol K)]       0.01745345 [mEh/K] (symmetry no. = 2)
    Vibrational S           5.486 [cal/(mol K)]       22.954 [J/(mol K)]       0.00874275 [mEh/K]
  Total S                  52.143 [cal/(mol K)]      218.165 [J/(mol K)]       0.08309481 [mEh/K]
  Correction S              0.000 [cal/(mol K)]        0.000 [J/(mol K)]       0.00000000 [mEh/K]

  Constant volume heat capacity, Cv
    Electronic Cv           0.000 [cal/(mol K)]        0.000 [J/(mol K)]       0.00000000 [mEh/K]
    Translational Cv        2.981 [cal/(mol K)]       12.472 [J/(mol K)]       0.00475022 [mEh/K]
    Rotational Cv           1.987 [cal/(mol K)]        8.314 [J/(mol K)]       0.00316681 [mEh/K]
    Vibrational Cv          7.353 [cal/(mol K)]       30.765 [J/(mol K)]       0.01171790 [mEh/K]
  Total Cv                 12.321 [cal/(mol K)]       51.551 [J/(mol K)]       0.01963493 [mEh/K]
  Correction Cv             0.000 [cal/(mol K)]        0.000 [J/(mol K)]       0.00000000 [mEh/K]

  Constant pressure heat capacity, Cp
    Electronic Cp           0.000 [cal/(mol K)]        0.000 [J/(mol K)]       0.00000000 [mEh/K]
    Translational Cp        4.968 [cal/(mol K)]       20.786 [J/(mol K)]       0.00791703 [mEh/K]
    Rotational Cp           1.987 [cal/(mol K)]        8.314 [J/(mol K)]       0.00316681 [mEh/K]
    Vibrational Cp          7.353 [cal/(mol K)]       30.765 [J/(mol K)]       0.01171790 [mEh/K]
  Total Cp                 14.308 [cal/(mol K)]       59.866 [J/(mol K)]       0.02280174 [mEh/K]
  Correction Cp             0.000 [cal/(mol K)]        0.000 [J/(mol K)]       0.00000000 [mEh/K]

  ==> Thermochemistry Energy Analysis <==

  Raw electronic energy, E0
  Total E0, Electronic energy at well bottom at 0 [K]                  -77.33777600 [Eh]

  Zero-point energy, ZPE_vib = Sum_i nu_i / 2
    Electronic ZPE          0.000 [kcal/mol]        0.000 [kJ/mol]       0.00000000 [Eh]
    Translational ZPE       0.000 [kcal/mol]        0.000 [kJ/mol]       0.00000000 [Eh]
    Rotational ZPE          0.000 [kcal/mol]        0.000 [kJ/mol]       0.00000000 [Eh]
    Vibrational ZPE        16.961 [kcal/mol]       70.964 [kJ/mol]       0.02702881 [Eh]        5932.138 [cm^-1]
  Correction ZPE           16.961 [kcal/mol]       70.964 [kJ/mol]       0.02702881 [Eh]        5932.138 [cm^-1]
  Total ZPE, Electronic energy at 0 [K]                                -77.31074718 [Eh]

  Thermal Energy, E (includes ZPE)
    Electronic E            0.000 [kcal/mol]        0.000 [kJ/mol]       0.00000000 [Eh]
    Translational E         0.889 [kcal/mol]        3.718 [kJ/mol]       0.00141628 [Eh]
    Rotational E            0.592 [kcal/mol]        2.479 [kJ/mol]       0.00094418 [Eh]
    Vibrational E          17.976 [kcal/mol]       75.212 [kJ/mol]       0.02864682 [Eh]
  Correction E             19.457 [kcal/mol]       81.410 [kJ/mol]       0.03100728 [Eh]
  Total E, Electronic energy at  298.15 [K]                            -77.30676871 [Eh]

  Enthalpy, H_trans = E_trans + k_B * T
    Electronic H            0.000 [kcal/mol]        0.000 [kJ/mol]       0.00000000 [Eh]
    Translational H         1.481 [kcal/mol]        6.197 [kJ/mol]       0.00236046 [Eh]
    Rotational H            0.592 [kcal/mol]        2.479 [kJ/mol]       0.00094418 [Eh]
    Vibrational H          17.976 [kcal/mol]       75.212 [kJ/mol]       0.02864682 [Eh]
  Correction H             20.050 [kcal/mol]       83.889 [kJ/mol]       0.03195147 [Eh]
  Total H, Enthalpy at  298.15 [K]                                     -77.30582453 [Eh]

  Gibbs free energy, G = H - T * S
    Electronic G            0.000 [kcal/mol]        0.000 [kJ/mol]       0.00000000 [Eh]
    Translational G        -9.164 [kcal/mol]      -38.342 [kJ/mol]      -0.01460386 [Eh]
    Rotational G           -2.673 [kcal/mol]      -11.183 [kJ/mol]      -0.00425956 [Eh]
    Vibrational G          16.340 [kcal/mol]       68.368 [kJ/mol]       0.02604017 [Eh]
  Correction G              4.503 [kcal/mol]       18.843 [kJ/mol]       0.00717675 [Eh]
  Total G, Free enthalpy at  298.15 [K]                                -77.33059925 [Eh]

*** Psi4 exiting successfully. Buy a developer a beer!
