                               Psi4 1.3.2 release

  ==> Input File <==

--------------------------------------------------------------------------
set basis  6-311++G**
molecule {
0 1
   C       -1.22151       -0.69325        0.00000
   C       -1.21114        0.71122        0.00000
   C       -0.01037       -1.40452        0.00000
   C        0.01037        1.40452        0.00000
   C        1.21114       -0.71122        0.00000
   C        1.22151        0.69325        0.00000
   H       -2.17311       -1.23332        0.00000
   H       -2.15464        1.26533        0.00000
   H       -0.01848       -2.49865        0.00000
   H        0.01848        2.49865        0.00000
   H        2.15464       -1.26533        0.00000
   H        2.17311        1.23332        0.00000
}
energy('m06-2x')
frequencies('m06-2x')
--------------------------------------------------------------------------

    Molecular point group: c2h
  Charge       = 0
  Multiplicity = 1
  Basis Set: 6-311++G**
    Blend: 6-311++G**
  Basis Set: (6-311++G** AUX)
    Blend: AUG-CC-PVTZ-JKFIT
  @DF-RKS Final Energy:  -232.19700221451527
    Total Energy =                       -232.1970022145152939
    Molecular point group: c2h
  Basis Set: 6-311++G**
    Blend: 6-311++G**
  Basis Set: (6-311++G** AUX)
    Blend: AUG-CC-PVTZ-JKFIT
  @DF-RKS Final Energy:  -232.19700221966818
    Total Energy =                       -232.1970022196681782
  Basis Set: 6-311++G**
    Blend: 6-311++G**
  Basis Set: (6-311++G** AUX)
    Blend: AUG-CC-PVTZ-JKFIT
  Basis Set: 6-311++G**
    Blend: 6-311++G**
  Basis Set: (6-311++G** AUX)
    Blend: AUG-CC-PVTZ-JKFIT
  @DF-RKS Final Energy:  -232.19700222459764
    Total Energy =                       -232.1970022245976395
  Basis Set: 6-311++G**
  @DF-RKS Final Energy:  -232.19710112001377
    Total Energy =                       -232.1971011200137696
  @DF-RKS Final Energy:  -232.19712357967146
    Total Energy =                       -232.1971235796714836
  @DF-RKS Final Energy:  -232.19709216637818
    Total Energy =                       -232.1970921663781837
  @DF-RKS Final Energy:  -232.19706610741389
    Total Energy =                       -232.1970661074138889
  @DF-RKS Final Energy:  -232.19708876444966
    Total Energy =                       -232.1970887644496315
  @DF-RKS Final Energy:  -232.19709703935084
    Total Energy =                       -232.1970970393508651
  @DF-RKS Final Energy:  -232.19708816081189
    Total Energy =                       -232.1970881608118589
  @DF-RKS Final Energy:  -232.19708681623149
    Total Energy =                       -232.1970868162314616
  @DF-RKS Final Energy:  -232.19704699302309
    Total Energy =                       -232.1970469930230649
  @DF-RKS Final Energy:  -232.19708283887650
    Total Energy =                       -232.1970828388765256
  @DF-RKS Final Energy:  -232.19702497044437
    Total Energy =                       -232.1970249704444029
  @DF-RKS Final Energy:  -232.19704424411862
    Total Energy =                       -232.1970442441186435
  @DF-RKS Final Energy:  -232.19706184671273
    Total Energy =                       -232.1970618467127281
  @DF-RKS Final Energy:  -232.19715735286633
    Total Energy =                       -232.1971573528663271
  @DF-RKS Final Energy:  -232.19706534633070
    Total Energy =                       -232.1970653463307031
  @DF-RKS Final Energy:  -232.19710385174378
    Total Energy =                       -232.1971038517437762
  @DF-RKS Final Energy:  -232.19704737171278
    Total Energy =                       -232.1970473717128129
  @DF-RKS Final Energy:  -232.19708197639284
    Total Energy =                       -232.1970819763928375
  @DF-RKS Final Energy:  -232.19700191437948
    Total Energy =                       -232.1970019143794843
  @DF-RKS Final Energy:  -232.19700179278186
    Total Energy =                       -232.1970017927818617
  @DF-RKS Final Energy:  -232.19700186811477
    Total Energy =                       -232.1970018681147963
  @DF-RKS Final Energy:  -232.19700174643089
    Total Energy =                       -232.1970017464309137
  @DF-RKS Final Energy:  -232.19700201899116
    Total Energy =                       -232.1970020189911565
  @DF-RKS Final Energy:  -232.19700202055745
    Total Energy =                       -232.1970020205574201
  @DF-RKS Final Energy:  -232.19700196599419
    Total Energy =                       -232.1970019659941897
  @DF-RKS Final Energy:  -232.19700184192874
    Total Energy =                       -232.1970018419287669
  @DF-RKS Final Energy:  -232.19700182971150
    Total Energy =                       -232.1970018297115246
  @DF-RKS Final Energy:  -232.19700094932739
    Total Energy =                       -232.1970009493273892
  @DF-RKS Final Energy:  -232.19700161681382
    Total Energy =                       -232.1970016168138216
  @DF-RKS Final Energy:  -232.19700076692027
    Total Energy =                       -232.1970007669202687
  @DF-RKS Final Energy:  -232.19700159973209
    Total Energy =                       -232.1970015997321184
  @DF-RKS Final Energy:  -232.19699953140395
    Total Energy =                       -232.1969995314039750
  @DF-RKS Final Energy:  -232.19700003732328
    Total Energy =                       -232.1970000373232779
  @DF-RKS Final Energy:  -232.19699880058013
    Total Energy =                       -232.1969988005801326
  @DF-RKS Final Energy:  -232.19700073659675
    Total Energy =                       -232.1970007365967490
  Basis Set: (6-311++G** AUX)
    Blend: AUG-CC-PVTZ-JKFIT
  Basis Set: 6-311++G**
    Blend: 6-311++G**
  Basis Set: (6-311++G** AUX)
    Blend: AUG-CC-PVTZ-JKFIT
  @DF-RKS Final Energy:  -232.19699970204792
    Total Energy =                       -232.1969997020478900
  Basis Set: 6-311++G**
    Blend: 6-311++G**
  Basis Set: (6-311++G** AUX)
    Blend: AUG-CC-PVTZ-JKFIT
    Molecular point group: cs
  Charge       = 0
  Multiplicity = 1
  Basis Set: 6-311++G**
    Blend: 6-311++G**
  Basis Set: (6-311++G** AUX)
    Blend: AUG-CC-PVTZ-JKFIT

    Orbital Energies [Eh]
    ---------------------

    Doubly Occupied:

       1Ap   -10.550632     2Ap   -10.550296     3Ap   -10.550270
       4Ap   -10.549540     5Ap   -10.549521     6Ap   -10.549151
       7Ap    -0.956001     8Ap    -0.841402     9Ap    -0.841395
      10Ap    -0.685373    11Ap    -0.685361    12Ap    -0.598263
      13Ap    -0.535064    14Ap    -0.512247    15Ap    -0.488539
      16Ap    -0.488527     1App   -0.436576    17Ap    -0.404576
      18Ap    -0.404566     2App   -0.307994     3App   -0.307986

  @DF-RKS Final Energy:  -232.19699983276291

   => Energetics <=

    Nuclear Repulsion Energy =            202.0133184684007119
    One-Electron Energy =                -711.0779533727276203
    Two-Electron Energy =                 293.5940985233150968
    DFT Exchange-Correlation Energy =     -16.7264634517511368
    Empirical Dispersion Energy =           0.0000000000000000
    VV10 Nonlocal Energy =                  0.0000000000000000
    Total Energy =                       -232.1969998327629412

  Dipole Moment: [D]
     X:    -0.0008      Y:    -0.0014      Z:     0.0000     Total:     0.0016

    Molecular point group: cs

    Geometry (in Angstrom), charge = 0, multiplicity = 1:

       Center              X                  Y                   Z               Mass
    ------------   -----------------  -----------------  -----------------  -----------------
         C           -1.221510000000    -0.693250000000     0.000000000000    12.000000000000
         C           -1.211140000000     0.711220000000     0.000000000000    12.000000000000
         C           -0.010370000000    -1.404520000000     0.000000000000    12.000000000000
         C            0.010370000000     1.404520000000     0.000000000000    12.000000000000
         C            1.211140000000    -0.711220000000     0.000000000000    12.000000000000
         C            1.221510000000     0.693250000000     0.000000000000    12.000000000000
         H           -2.173110000000    -1.233320000000     0.000000000000     1.007825032230
         H           -2.154640000000     1.264012202829     0.000000000000     1.007825032230
         H           -0.018480000000    -2.497332202829     0.000000000000     1.007825032230
         H            0.018480000000     2.499967797171     0.000000000000     1.007825032230
         H            2.154640000000    -1.266647797171     0.000000000000     1.007825032230
         H            2.173110000000     1.233320000000     0.000000000000     1.007825032230

  Basis Set: 6-311++G**
    Blend: 6-311++G**
  Basis Set: (6-311++G** AUX)
    Blend: AUG-CC-PVTZ-JKFIT

  -Total Gradient:
     Atom            X                  Y                   Z
    ------   -----------------  -----------------  -----------------
       1       -0.004591988026    -0.002541477861     0.000000000000
       2       -0.004759480786     0.002937856656     0.000000000000
       3        0.000003875953    -0.006060510761     0.000000000000
       4        0.000063620217     0.004424002869     0.000000000000
       5        0.004223868631    -0.002343172172     0.000000000000
       6        0.004438629025     0.002541562982     0.000000000000
       7       -0.006267587466    -0.003580882087     0.000000000000
       8       -0.005897483435     0.003375378902     0.000000000000
       9       -0.000046399803    -0.006350123590     0.000000000000
      10        0.000047215775     0.008057299678     0.000000000000
      11        0.006510457693    -0.004033243610     0.000000000000
      12        0.006276218146     0.003574739338     0.000000000000

  Vibration                       7                   8                   9
  Freq [cm^-1]                 435.2832            436.2736            608.8015
  Irrep                           Au                  Au                  Ag
  Reduced mass [u]              2.9889              3.0024              6.1822
  Force const [mDyne/A]         0.3337              0.3367              1.3500

  Vibration                       10                  11                  12
  Freq [cm^-1]                 629.6870            732.5580            750.9662
  Irrep                           Ag                  Bg                  Au
  Reduced mass [u]              5.7935              3.5895              1.0849
  Force const [mDyne/A]         1.3534              1.1349              0.3605

  Vibration                       13                  14                  15
  Freq [cm^-1]                 915.8962            917.7248            994.9214
  Irrep                           Bg                  Bg                  Ag
  Reduced mass [u]              1.2479              1.2479              4.5590
  Force const [mDyne/A]         0.6168              0.6192              2.6589

  Vibration                       16                  17                  18
  Freq [cm^-1]                1011.0510           1030.2769           1031.7469
  Irrep                           Bu                  Au                  Au
  Reduced mass [u]              6.5155              1.3498              1.3465
  Force const [mDyne/A]         3.9241              0.8442              0.8445

  Vibration                       19                  20                  21
  Freq [cm^-1]                1058.5372           1058.6211           1058.8324
  Irrep                           Bu                  Bu                  Bg
  Reduced mass [u]              1.7819              1.7781              1.2547
  Force const [mDyne/A]         1.1763              1.1741              0.8288

  Vibration                       22                  23                  24
  Freq [cm^-1]                1106.8548           1153.6946           1222.4035
  Irrep                           Ag                  Bu                  Ag
  Reduced mass [u]              1.2904              1.5309              1.1556
  Force const [mDyne/A]         0.9314              1.2005              1.0174

  Vibration                       25                  26                  27
  Freq [cm^-1]                1284.0550           1393.2805           1507.6786
  Irrep                           Bu                  Ag                  Bu
  Reduced mass [u]              2.3676              1.2482              1.9113
  Force const [mDyne/A]         2.3000              1.4277              2.5597

  Vibration                       28                  29                  30
  Freq [cm^-1]                1507.8212           1615.3221           1643.6567
  Irrep                           Bu                  Ag                  Ag
  Reduced mass [u]              1.9131              5.0291              4.1972
  Force const [mDyne/A]         2.5627              7.7314              6.6808

  Vibration                       31                  32                  33
  Freq [cm^-1]                3102.3674           3111.9925           3112.2822
  Irrep                           Bu                  Ag                  Ag
  Reduced mass [u]              1.0845              1.0889              1.0881
  Force const [mDyne/A]         6.1498              6.2130              6.2097

  Vibration                       34                  35                  36
  Freq [cm^-1]                3126.9835           3127.6443           3136.8065
  Irrep                           Bu                  Bu                  Ag
  Reduced mass [u]              1.0958              1.0957              1.0994
  Force const [mDyne/A]         6.3129              6.3151              6.3738

  ==> Thermochemistry Components <==

  Entropy, S
    Electronic S            0.000 [cal/(mol K)]        0.000 [J/(mol K)]       0.00000000 [mEh/K] (multiplicity = 1)
    Translational S        38.979 [cal/(mol K)]      163.089 [J/(mol K)]       0.06211726 [mEh/K] (mol. weight = 78.0470 [u], P = 101325.00 [Pa])
    Rotational S           24.318 [cal/(mol K)]      101.746 [J/(mol K)]       0.03875307 [mEh/K] (symmetry no. = 2)
    Vibrational S           4.102 [cal/(mol K)]       17.162 [J/(mol K)]       0.00653674 [mEh/K]
  Total S                  67.399 [cal/(mol K)]      281.997 [J/(mol K)]       0.10740707 [mEh/K]
  Correction S              0.000 [cal/(mol K)]        0.000 [J/(mol K)]       0.00000000 [mEh/K]

  Constant volume heat capacity, Cv
    Electronic Cv           0.000 [cal/(mol K)]        0.000 [J/(mol K)]       0.00000000 [mEh/K]
    Translational Cv        2.981 [cal/(mol K)]       12.472 [J/(mol K)]       0.00475022 [mEh/K]
    Rotational Cv           2.981 [cal/(mol K)]       12.472 [J/(mol K)]       0.00475022 [mEh/K]
    Vibrational Cv         10.822 [cal/(mol K)]       45.278 [J/(mol K)]       0.01724537 [mEh/K]
  Total Cv                 16.783 [cal/(mol K)]       70.221 [J/(mol K)]       0.02674580 [mEh/K]
  Correction Cv             0.000 [cal/(mol K)]        0.000 [J/(mol K)]       0.00000000 [mEh/K]

  Constant pressure heat capacity, Cp
    Electronic Cp           0.000 [cal/(mol K)]        0.000 [J/(mol K)]       0.00000000 [mEh/K]
    Translational Cp        4.968 [cal/(mol K)]       20.786 [J/(mol K)]       0.00791703 [mEh/K]
    Rotational Cp           2.981 [cal/(mol K)]       12.472 [J/(mol K)]       0.00475022 [mEh/K]
    Vibrational Cp         10.822 [cal/(mol K)]       45.278 [J/(mol K)]       0.01724537 [mEh/K]
  Total Cp                 18.770 [cal/(mol K)]       78.536 [J/(mol K)]       0.02991261 [mEh/K]
  Correction Cp             0.000 [cal/(mol K)]        0.000 [J/(mol K)]       0.00000000 [mEh/K]

  ==> Thermochemistry Energy Analysis <==

  Raw electronic energy, E0
  Total E0, Electronic energy at well bottom at 0 [K]                 -232.19700222 [Eh]

  Zero-point energy, ZPE_vib = Sum_i nu_i / 2
    Electronic ZPE          0.000 [kcal/mol]        0.000 [kJ/mol]       0.00000000 [Eh]
    Translational ZPE       0.000 [kcal/mol]        0.000 [kJ/mol]       0.00000000 [Eh]
    Rotational ZPE          0.000 [kcal/mol]        0.000 [kJ/mol]       0.00000000 [Eh]
    Vibrational ZPE        62.650 [kcal/mol]      262.126 [kJ/mol]       0.09983846 [Eh]       21912.010 [cm^-1]
  Correction ZPE           62.650 [kcal/mol]      262.126 [kJ/mol]       0.09983846 [Eh]       21912.010 [cm^-1]
  Total ZPE, Electronic energy at 0 [K]                               -232.09716376 [Eh]

  Thermal Energy, E (includes ZPE)
    Electronic E            0.000 [kcal/mol]        0.000 [kJ/mol]       0.00000000 [Eh]
    Translational E         0.889 [kcal/mol]        3.718 [kJ/mol]       0.00141628 [Eh]
    Rotational E            0.889 [kcal/mol]        3.718 [kJ/mol]       0.00141628 [Eh]
    Vibrational E          63.571 [kcal/mol]      265.980 [kJ/mol]       0.10130642 [Eh]
  Correction E             65.348 [kcal/mol]      273.417 [kJ/mol]       0.10413897 [Eh]
  Total E, Electronic energy at  298.15 [K]                           -232.09286325 [Eh]

  Enthalpy, H_trans = E_trans + k_B * T
    Electronic H            0.000 [kcal/mol]        0.000 [kJ/mol]       0.00000000 [Eh]
    Translational H         1.481 [kcal/mol]        6.197 [kJ/mol]       0.00236046 [Eh]
    Rotational H            0.889 [kcal/mol]        3.718 [kJ/mol]       0.00141628 [Eh]
    Vibrational H          63.571 [kcal/mol]      265.980 [kJ/mol]       0.10130642 [Eh]
  Correction H             65.941 [kcal/mol]      275.896 [kJ/mol]       0.10508316 [Eh]
  Total H, Enthalpy at  298.15 [K]                                    -232.09191907 [Eh]

  Gibbs free energy, G = H - T * S
    Electronic G            0.000 [kcal/mol]        0.000 [kJ/mol]       0.00000000 [Eh]
    Translational G       -10.140 [kcal/mol]      -42.428 [kJ/mol]      -0.01615980 [Eh]
    Rotational G           -6.362 [kcal/mol]      -26.617 [kJ/mol]      -0.01013795 [Eh]
    Vibrational G          62.348 [kcal/mol]      260.863 [kJ/mol]       0.09935749 [Eh]
  Correction G             45.846 [kcal/mol]      191.818 [kJ/mol]       0.07305974 [Eh]
  Total G, Free enthalpy at  298.15 [K]                               -232.12394249 [Eh]

*** Psi4 exiting successfully. Buy a developer a beer!
