                               Psi4 1.3.2 release

  ==> Input File <==

--------------------------------------------------------------------------
set basis  aug-cc-pVTZ
molecule {
0 1
   C       -0.61446        0.00000        0.00000
   C        0.61446        0.00000        0.00000
   H       -1.68923        0.00000        0.00000
   H        1.68923        0.00000        0.00000
}
energy('MP2')
frequencies('MP2')
--------------------------------------------------------------------------

    Molecular point group: d2h
  Charge       = 0
  Multiplicity = 1
  Basis Set: AUG-CC-PVTZ
    Blend: AUG-CC-PVTZ
  Basis Set: (AUG-CC-PVTZ AUX)
    Blend: AUG-CC-PVTZ-JKFIT
  @DF-RHF Final Energy:   -76.84575464023160
    Total Energy =                        -76.8457546402316041
  Basis Set: (AUG-CC-PVTZ AUX)
    Blend: AUG-CC-PVTZ-RI
	 Reference Energy          =     -76.8457546402316041 [Eh]
	 Singles Energy            =      -0.0000000000000000 [Eh]
	 Same-Spin Energy          =      -0.0780700796021517 [Eh]
	 Opposite-Spin Energy      =      -0.2729332903983637 [Eh]
	 Correlation Energy        =      -0.3510033700005154 [Eh]
	 Total Energy              =     -77.1967580102321165 [Eh]
	 SCS Total Energy          =     -77.1992979485770263 [Eh]
    Molecular point group: d2h
  Basis Set: AUG-CC-PVTZ
    Blend: AUG-CC-PVTZ
  Basis Set: (AUG-CC-PVTZ AUX)
    Blend: AUG-CC-PVTZ-JKFIT
  @DF-RHF Final Energy:   -76.84575464023152
    Total Energy =                        -76.8457546402315188
  Basis Set: (AUG-CC-PVTZ AUX)
  @DF-RHF Final Energy:   -76.84575464023152
    Total Energy =                        -76.8457546402315188
  @DF-RHF Final Energy:   -76.84557593599739
    Total Energy =                        -76.8455759359974024
  @DF-RHF Final Energy:   -76.84592839200846
    Total Energy =                        -76.8459283920084602
  @DF-RHF Final Energy:   -76.84563707483774
    Total Energy =                        -76.8456370748377537
  @DF-RHF Final Energy:   -76.84586232390004
    Total Energy =                        -76.8458623239000360
  @DF-RHF Final Energy:   -76.84575445218891
    Total Energy =                        -76.8457544521889133
  @DF-RHF Final Energy:   -76.84575440357071
    Total Energy =                        -76.8457544035707087
  @DF-RHF Final Energy:   -76.84575445221351
    Total Energy =                        -76.8457544522135265
  @DF-RHF Final Energy:   -76.84575440363716
    Total Energy =                        -76.8457544036371587
  @DF-RHF Final Energy:   -76.84575421108336
    Total Energy =                        -76.8457542110833600
  @DF-RHF Final Energy:   -76.84575421114873
    Total Energy =                        -76.8457542111487300
    Molecular point group: c2v
  Charge       = 0
  Multiplicity = 1
  Basis Set: AUG-CC-PVTZ
    Blend: AUG-CC-PVTZ
  Basis Set: (AUG-CC-PVTZ AUX)
    Blend: AUG-CC-PVTZ-JKFIT

    Orbital Energies [Eh]
    ---------------------

    Doubly Occupied:

       1A1   -11.253593     2A1   -11.250319     3A1    -1.022835
       4A1    -0.767063     5A1    -0.676894     1B2    -0.405335
       1B1    -0.405335

  @DF-RHF Final Energy:   -76.84574930185546

   => Energetics <=

    Nuclear Repulsion Energy =             24.3232393838559098
    One-Electron Energy =                -150.7752309850100119
    Two-Electron Energy =                  49.6062422992986427
    Total Energy =                        -76.8457493018554629

  Dipole Moment: [D]
     X:     0.0044      Y:     0.0000      Z:     0.0000     Total:     0.0044

  Basis Set: (AUG-CC-PVTZ AUX)
    Blend: AUG-CC-PVTZ-RI
    Molecular point group: c2v

    Geometry (in Angstrom), charge = 0, multiplicity = 1:

       Center              X                  Y                   Z               Mass
    ------------   -----------------  -----------------  -----------------  -----------------
         C           -0.614610333491     0.000000000000     0.000000000000    12.000000000000
         C            0.614309666509     0.000000000000     0.000000000000    12.000000000000
         H           -1.687440004874     0.000000000000     0.000000000000     1.007825032230
         H            1.691019995126     0.000000000000     0.000000000000     1.007825032230

  Basis Set: AUG-CC-PVTZ
    Blend: AUG-CC-PVTZ
  Basis Set: (AUG-CC-PVTZ AUX)
    Blend: AUG-CC-PVTZ-JKFIT
  Basis Set: (AUG-CC-PVTZ AUX)
    Blend: AUG-CC-PVTZ-JKFIT
	 Reference Energy          =     -76.8457493018554629 [Eh]
	 Singles Energy            =      -0.0000000000000000 [Eh]
	 Same-Spin Energy          =      -0.0780701199931680 [Eh]
	 Opposite-Spin Energy      =      -0.2729336417682472 [Eh]
	 Correlation Energy        =      -0.3510037617614153 [Eh]
	 Total Energy              =     -77.1967530636168817 [Eh]

	 ================> DF-SCS-MP2 Energies <==================
	-----------------------------------------------------------
	 SCS Same-Spin Scale       =       0.3333333333333333 [-]
	 SCS Opposite-Spin Scale   =       1.2000000000000000 [-]
	 SCS Same-Spin Energy      =      -0.0260233733310560 [Eh]
	 SCS Opposite-Spin Energy  =      -0.3275203701218967 [Eh]
	 SCS Correlation Energy    =      -0.3535437434529527 [Eh]
	 SCS Total Energy          =     -77.1992930453084227 [Eh]
	-----------------------------------------------------------

  -Total Gradient:
     Atom            X                  Y                   Z
    ------   -----------------  -----------------  -----------------
       1       -0.024279506199     0.000000000000     0.000000000000
       2        0.021581395113     0.000000000000     0.000000000000
       3       -0.012454198076     0.000000000000     0.000000000000
       4        0.015152309163     0.000000000000     0.000000000000

  Vibration                       4                   5                   6
  Freq [cm^-1]                 261.0361            261.0364            731.5790
  Irrep                          B1g                 B2g                 B1g
  Reduced mass [u]              2.6835              2.6835              1.4226
  Force const [mDyne/A]         0.1077              0.1077              0.4486

  Vibration                       7                   8                   9
  Freq [cm^-1]                 731.5791            850.1829            850.1831
  Irrep                          B2g                 B2u                 B1u
  Reduced mass [u]              1.4226              1.0848              1.0848
  Force const [mDyne/A]         0.4486              0.4620              0.4620

  Vibration                       10                  11                  12
  Freq [cm^-1]                1861.3653           3233.7114           3374.9322
  Irrep                           Ag                 B3u                  Ag
  Reduced mass [u]              4.1173              1.0848              1.2009
  Force const [mDyne/A]         8.4047              6.6836              8.0593

  ==> Thermochemistry Components <==

  Entropy, S
    Electronic S            0.000 [cal/(mol K)]        0.000 [J/(mol K)]       0.00000000 [mEh/K] (multiplicity = 1)
    Translational S        35.704 [cal/(mol K)]      149.387 [J/(mol K)]       0.05689862 [mEh/K] (mol. weight = 26.0157 [u], P = 101325.00 [Pa])
    Rotational S           10.952 [cal/(mol K)]       45.824 [J/(mol K)]       0.01745345 [mEh/K] (symmetry no. = 2)
    Vibrational S           4.194 [cal/(mol K)]       17.548 [J/(mol K)]       0.00668360 [mEh/K]
  Total S                  50.851 [cal/(mol K)]      212.759 [J/(mol K)]       0.08103567 [mEh/K]
  Correction S              0.000 [cal/(mol K)]        0.000 [J/(mol K)]       0.00000000 [mEh/K]

  Constant volume heat capacity, Cv
    Electronic Cv           0.000 [cal/(mol K)]        0.000 [J/(mol K)]       0.00000000 [mEh/K]
    Translational Cv        2.981 [cal/(mol K)]       12.472 [J/(mol K)]       0.00475022 [mEh/K]
    Rotational Cv           1.987 [cal/(mol K)]        8.314 [J/(mol K)]       0.00316681 [mEh/K]
    Vibrational Cv          6.191 [cal/(mol K)]       25.905 [J/(mol K)]       0.00986676 [mEh/K]
  Total Cv                 11.159 [cal/(mol K)]       46.691 [J/(mol K)]       0.01778378 [mEh/K]
  Correction Cv             0.000 [cal/(mol K)]        0.000 [J/(mol K)]       0.00000000 [mEh/K]

  Constant pressure heat capacity, Cp
    Electronic Cp           0.000 [cal/(mol K)]        0.000 [J/(mol K)]       0.00000000 [mEh/K]
    Translational Cp        4.968 [cal/(mol K)]       20.786 [J/(mol K)]       0.00791703 [mEh/K]
    Rotational Cp           1.987 [cal/(mol K)]        8.314 [J/(mol K)]       0.00316681 [mEh/K]
    Vibrational Cp          6.191 [cal/(mol K)]       25.905 [J/(mol K)]       0.00986676 [mEh/K]
  Total Cp                 13.147 [cal/(mol K)]       55.006 [J/(mol K)]       0.02095059 [mEh/K]
  Correction Cp             0.000 [cal/(mol K)]        0.000 [J/(mol K)]       0.00000000 [mEh/K]

  ==> Thermochemistry Energy Analysis <==

  Raw electronic energy, E0
  Total E0, Electronic energy at well bottom at 0 [K]                  -77.19675801 [Eh]

  Zero-point energy, ZPE_vib = Sum_i nu_i / 2
    Electronic ZPE          0.000 [kcal/mol]        0.000 [kJ/mol]       0.00000000 [Eh]
    Translational ZPE       0.000 [kcal/mol]        0.000 [kJ/mol]       0.00000000 [Eh]
    Rotational ZPE          0.000 [kcal/mol]        0.000 [kJ/mol]       0.00000000 [Eh]
    Vibrational ZPE        17.377 [kcal/mol]       72.707 [kJ/mol]       0.02769251 [Eh]        6077.803 [cm^-1]
  Correction ZPE           17.377 [kcal/mol]       72.707 [kJ/mol]       0.02769251 [Eh]        6077.803 [cm^-1]
  Total ZPE, Electronic energy at 0 [K]                                -77.16906550 [Eh]

  Thermal Energy, E (includes ZPE)
    Electronic E            0.000 [kcal/mol]        0.000 [kJ/mol]       0.00000000 [Eh]
    Translational E         0.889 [kcal/mol]        3.718 [kJ/mol]       0.00141628 [Eh]
    Rotational E            0.592 [kcal/mol]        2.479 [kJ/mol]       0.00094418 [Eh]
    Vibrational E          18.177 [kcal/mol]       76.054 [kJ/mol]       0.02896730 [Eh]
  Correction E             19.658 [kcal/mol]       82.251 [kJ/mol]       0.03132776 [Eh]
  Total E, Electronic energy at  298.15 [K]                            -77.16543025 [Eh]

  Enthalpy, H_trans = E_trans + k_B * T
    Electronic H            0.000 [kcal/mol]        0.000 [kJ/mol]       0.00000000 [Eh]
    Translational H         1.481 [kcal/mol]        6.197 [kJ/mol]       0.00236046 [Eh]
    Rotational H            0.592 [kcal/mol]        2.479 [kJ/mol]       0.00094418 [Eh]
    Vibrational H          18.177 [kcal/mol]       76.054 [kJ/mol]       0.02896730 [Eh]
  Correction H             20.251 [kcal/mol]       84.730 [kJ/mol]       0.03227195 [Eh]
  Total H, Enthalpy at  298.15 [K]                                     -77.16448606 [Eh]

  Gibbs free energy, G = H - T * S
    Electronic G            0.000 [kcal/mol]        0.000 [kJ/mol]       0.00000000 [Eh]
    Translational G        -9.164 [kcal/mol]      -38.342 [kJ/mol]      -0.01460386 [Eh]
    Rotational G           -2.673 [kcal/mol]      -11.183 [kJ/mol]      -0.00425956 [Eh]
    Vibrational G          16.927 [kcal/mol]       70.822 [kJ/mol]       0.02697459 [Eh]
  Correction G              5.090 [kcal/mol]       21.296 [kJ/mol]       0.00811116 [Eh]
  Total G, Free enthalpy at  298.15 [K]                                -77.18864685 [Eh]

*** Psi4 exiting successfully. Buy a developer a beer!
