                               Psi4 1.3.2 release

  ==> Input File <==

--------------------------------------------------------------------------
set basis  6-311++G**
molecule {
0 1
   C        0.32153        0.81326        0.00000
   C       -0.86505       -0.12817        0.00000
   C        0.54353       -0.68508        0.00000
   H        0.53795        1.36069       -0.92039
   H        0.53795        1.36069        0.92039
   H       -1.44742       -0.21449        0.92034
   H       -1.44742       -0.21449       -0.92034
   H        0.90937       -1.14629       -0.92037
   H        0.90937       -1.14629        0.92037
}
energy('scf')
frequencies('scf')
--------------------------------------------------------------------------

    Molecular point group: cs
  Charge       = 0
  Multiplicity = 1
  Basis Set: 6-311++G**
    Blend: 6-311++G**
  Basis Set: (6-311++G** AUX)
    Blend: AUG-CC-PVTZ-JKFIT
  @DF-RHF Final Energy:  -117.08749937409524
    Total Energy =                       -117.0874993740952448
    Molecular point group: cs
  Basis Set: 6-311++G**
    Blend: 6-311++G**
  Basis Set: (6-311++G** AUX)
    Blend: AUG-CC-PVTZ-JKFIT
  @DF-RHF Final Energy:  -117.08749937516173
    Total Energy =                       -117.0874993751617268
  Basis Set: 6-311++G**
    Blend: 6-311++G**
  Basis Set: (6-311++G** AUX)
    Blend: AUG-CC-PVTZ-JKFIT

  -Total Gradient:
     Atom            X                  Y                   Z
    ------   -----------------  -----------------  -----------------
       1        0.000857075071     0.002168846353     0.000000000000
       2       -0.002279168017    -0.000333643589     0.000000000000
       3        0.001447952530    -0.001813029340     0.000000000000
       4        0.002171893582     0.005497255110    -0.010522357708
       5        0.002171893582     0.005497255110     0.010522357708
       6       -0.005856854497    -0.000870886146     0.010511687068
       7       -0.005856854497    -0.000870886146    -0.010511687068
       8        0.003672031123    -0.004637455676    -0.010518211991
       9        0.003672031123    -0.004637455676     0.010518211991

  Charge       = 0
  Multiplicity = 1
  Basis Set: 6-311++G**
    Blend: 6-311++G**
  Basis Set: (6-311++G** AUX)
    Blend: AUG-CC-PVTZ-JKFIT

    Orbital Energies [Eh]
    ---------------------

    Doubly Occupied:

       1Ap   -11.228413     2Ap   -11.227441     3Ap   -11.227436
       4Ap    -1.126351     5Ap    -0.814600     6Ap    -0.814595
       1App   -0.663761     7Ap    -0.622863     2App   -0.510819
       3App   -0.510804     8Ap    -0.417301     9Ap    -0.417293

  @DF-RHF Final Energy:  -117.08749937516060

   => Energetics <=

    Nuclear Repulsion Energy =             75.2814648090140253
    One-Electron Energy =                -305.5745740239662496
    Two-Electron Energy =                 113.2056098397916060
    Total Energy =                       -117.0874993751606041

  Dipole Moment: [D]
     X:    -0.0001      Y:    -0.0001      Z:     0.0000     Total:     0.0001

    Molecular point group: cs
  Basis Set: 6-311++G**
    Blend: 6-311++G**
  Basis Set: (6-311++G** AUX)
    Blend: AUG-CC-PVTZ-JKFIT
  Basis Set: (6-311++G** AUX)
    Blend: AUG-CC-PVTZ-JKFIT
    Molecular point group: cs

    Geometry (in Angstrom), charge = 0, multiplicity = 1:

       Center              X                  Y                   Z               Mass
    ------------   -----------------  -----------------  -----------------  -----------------
         C            0.321531939855     0.813261460475     0.000000000000    12.000000000000
         C           -0.865048060145    -0.128168539525     0.000000000000    12.000000000000
         C            0.543531939855    -0.685078539525     0.000000000000    12.000000000000
         H            0.537951939855     1.360691460475    -0.920390000000     1.007825032230
         H            0.537951939855     1.360691460475     0.920390000000     1.007825032230
         H           -1.447418060145    -0.214488539525     0.920340000000     1.007825032230
         H           -1.447418060145    -0.214488539525    -0.920340000000     1.007825032230
         H            0.909371939855    -1.146288539525    -0.920370000000     1.007825032230
         H            0.909371939855    -1.146288539525     0.920370000000     1.007825032230

  Basis Set: 6-311++G**
    Blend: 6-311++G**
  Basis Set: (6-311++G** AUX)
    Blend: AUG-CC-PVTZ-JKFIT

  Vibration                       7                   8                   9
  Freq [cm^-1]                 873.6846            873.6885            907.6250
  Irrep                          App                 App                  Ap
  Reduced mass [u]              1.0220              1.0220              3.9390
  Force const [mDyne/A]         0.4596              0.4596              1.9118

  IR activ [km/mol]             0.0000              0.0000             27.7290

  Vibration                       10                  11                  12
  Freq [cm^-1]                 907.6589            978.4228           1207.1880
  Irrep                           Ap                 App                  Ap
  Reduced mass [u]              3.9391              1.0440              1.2371
  Force const [mDyne/A]         1.9120              0.5888              1.0622

  IR activ [km/mol]            27.7204              0.0246              5.8483

  Vibration                       13                  14                  15
  Freq [cm^-1]                1207.1976           1240.6225           1243.9630
  Irrep                           Ap                  Ap                  Ap
  Reduced mass [u]              1.2371              1.4254              2.9187
  Force const [mDyne/A]         1.0623              1.2926              2.6611

  IR activ [km/mol]             5.8461              0.0000              0.0000

  Vibration                       16                  17                  18
  Freq [cm^-1]                1281.2773           1331.8966           1331.8994
  Irrep                          App                 App                 App
  Reduced mass [u]              1.0078              1.4470              1.4470
  Force const [mDyne/A]         0.9748              1.5124              1.5124

  IR activ [km/mol]             0.0000              0.0000              0.0000

  Vibration                       19                  20                  21
  Freq [cm^-1]                1602.2547           1602.2720           1656.9535
  Irrep                           Ap                  Ap                  Ap
  Reduced mass [u]              1.0929              1.0929              1.2723
  Force const [mDyne/A]         1.6530              1.6531              2.0581

  IR activ [km/mol]             0.6491              0.6492              0.0000

  Vibration                       22                  23                  24
  Freq [cm^-1]                3110.7474           3110.7661           3124.6638
  Irrep                           Ap                  Ap                  Ap
  Reduced mass [u]              1.0503              1.0503              1.0647
  Force const [mDyne/A]         5.9881              5.9882              6.1247

  IR activ [km/mol]            34.2734             34.2776              0.0000

  Vibration                       25                  26                  27
  Freq [cm^-1]                3184.6387           3184.6535           3208.6362
  Irrep                          App                 App                 App
  Reduced mass [u]              1.1216              1.1216              1.1162
  Force const [mDyne/A]         6.7022              6.7023              6.7708

  IR activ [km/mol]             0.0000              0.0000             54.9586

  ==> Thermochemistry Components <==

  Entropy, S
    Electronic S            0.000 [cal/(mol K)]        0.000 [J/(mol K)]       0.00000000 [mEh/K] (multiplicity = 1)
    Translational S        37.135 [cal/(mol K)]      155.375 [J/(mol K)]       0.05917914 [mEh/K] (mol. weight = 42.0470 [u], P = 101325.00 [Pa])
    Rotational S           21.699 [cal/(mol K)]       90.789 [J/(mol K)]       0.03457982 [mEh/K] (symmetry no. = 1)
    Vibrational S           0.931 [cal/(mol K)]        3.897 [J/(mol K)]       0.00148412 [mEh/K]
  Total S                  59.766 [cal/(mol K)]      250.061 [J/(mol K)]       0.09524308 [mEh/K]
  Correction S              0.000 [cal/(mol K)]        0.000 [J/(mol K)]       0.00000000 [mEh/K]

  Constant volume heat capacity, Cv
    Electronic Cv           0.000 [cal/(mol K)]        0.000 [J/(mol K)]       0.00000000 [mEh/K]
    Translational Cv        2.981 [cal/(mol K)]       12.472 [J/(mol K)]       0.00475022 [mEh/K]
    Rotational Cv           2.981 [cal/(mol K)]       12.472 [J/(mol K)]       0.00475022 [mEh/K]
    Vibrational Cv          3.784 [cal/(mol K)]       15.834 [J/(mol K)]       0.00603085 [mEh/K]
  Total Cv                  9.746 [cal/(mol K)]       40.777 [J/(mol K)]       0.01553128 [mEh/K]
  Correction Cv             0.000 [cal/(mol K)]        0.000 [J/(mol K)]       0.00000000 [mEh/K]

  Constant pressure heat capacity, Cp
    Electronic Cp           0.000 [cal/(mol K)]        0.000 [J/(mol K)]       0.00000000 [mEh/K]
    Translational Cp        4.968 [cal/(mol K)]       20.786 [J/(mol K)]       0.00791703 [mEh/K]
    Rotational Cp           2.981 [cal/(mol K)]       12.472 [J/(mol K)]       0.00475022 [mEh/K]
    Vibrational Cp          3.784 [cal/(mol K)]       15.834 [J/(mol K)]       0.00603085 [mEh/K]
  Total Cp                 11.733 [cal/(mol K)]       49.092 [J/(mol K)]       0.01869809 [mEh/K]
  Correction Cp             0.000 [cal/(mol K)]        0.000 [J/(mol K)]       0.00000000 [mEh/K]

  ==> Thermochemistry Energy Analysis <==

  Raw electronic energy, E0
  Total E0, Electronic energy at well bottom at 0 [K]                 -117.08749938 [Eh]

  Zero-point energy, ZPE_vib = Sum_i nu_i / 2
    Electronic ZPE          0.000 [kcal/mol]        0.000 [kJ/mol]       0.00000000 [Eh]
    Translational ZPE       0.000 [kcal/mol]        0.000 [kJ/mol]       0.00000000 [Eh]
    Rotational ZPE          0.000 [kcal/mol]        0.000 [kJ/mol]       0.00000000 [Eh]
    Vibrational ZPE        53.138 [kcal/mol]      222.330 [kJ/mol]       0.08468111 [Eh]       18585.355 [cm^-1]
  Correction ZPE           53.138 [kcal/mol]      222.330 [kJ/mol]       0.08468111 [Eh]       18585.355 [cm^-1]
  Total ZPE, Electronic energy at 0 [K]                               -117.00281827 [Eh]

  Thermal Energy, E (includes ZPE)
    Electronic E            0.000 [kcal/mol]        0.000 [kJ/mol]       0.00000000 [Eh]
    Translational E         0.889 [kcal/mol]        3.718 [kJ/mol]       0.00141628 [Eh]
    Rotational E            0.889 [kcal/mol]        3.718 [kJ/mol]       0.00141628 [Eh]
    Vibrational E          53.368 [kcal/mol]      223.290 [kJ/mol]       0.08504684 [Eh]
  Correction E             55.145 [kcal/mol]      230.727 [kJ/mol]       0.08787939 [Eh]
  Total E, Electronic energy at  298.15 [K]                           -116.99961999 [Eh]

  Enthalpy, H_trans = E_trans + k_B * T
    Electronic H            0.000 [kcal/mol]        0.000 [kJ/mol]       0.00000000 [Eh]
    Translational H         1.481 [kcal/mol]        6.197 [kJ/mol]       0.00236046 [Eh]
    Rotational H            0.889 [kcal/mol]        3.718 [kJ/mol]       0.00141628 [Eh]
    Vibrational H          53.368 [kcal/mol]      223.290 [kJ/mol]       0.08504684 [Eh]
  Correction H             55.738 [kcal/mol]      233.206 [kJ/mol]       0.08882357 [Eh]
  Total H, Enthalpy at  298.15 [K]                                    -116.99867580 [Eh]

  Gibbs free energy, G = H - T * S
    Electronic G            0.000 [kcal/mol]        0.000 [kJ/mol]       0.00000000 [Eh]
    Translational G        -9.591 [kcal/mol]      -40.128 [kJ/mol]      -0.01528380 [Eh]
    Rotational G           -5.581 [kcal/mol]      -23.350 [kJ/mol]      -0.00889370 [Eh]
    Vibrational G          53.090 [kcal/mol]      222.129 [kJ/mol]       0.08460435 [Eh]
  Correction G             37.918 [kcal/mol]      158.651 [kJ/mol]       0.06042685 [Eh]
  Total G, Free enthalpy at  298.15 [K]                               -117.02707253 [Eh]

*** Psi4 exiting successfully. Buy a developer a beer!
