                               Psi4 1.3.2 release

  ==> Input File <==

--------------------------------------------------------------------------
set basis  6-31+g*
molecule {
0 1
   C       -0.61446        0.00000        0.00000
   C        0.61446        0.00000        0.00000
   H       -1.68923        0.00000        0.00000
   H        1.68923        0.00000        0.00000
}
energy('B3LYP')
frequencies('B3LYP')
--------------------------------------------------------------------------

    Molecular point group: d2h
  Charge       = 0
  Multiplicity = 1
  Basis Set: 6-31+G*
    Blend: 6-31+G*
  Basis Set: (6-31+G* AUX)
    Blend: HEAVY-AUG-CC-PVDZ-JKFIT
  @DF-RKS Final Energy:   -77.33214866403378
    Total Energy =                        -77.3321486640337810
    Molecular point group: d2h
  Basis Set: 6-31+G*
    Blend: 6-31+G*
  Basis Set: (6-31+G* AUX)
    Blend: HEAVY-AUG-CC-PVDZ-JKFIT
  @DF-RKS Final Energy:   -77.33214866413313
    Total Energy =                        -77.3321486641331433
  Basis Set: 6-31+G*
    Blend: 6-31+G*
  Basis Set: (6-31+G* AUX)
    Blend: HEAVY-AUG-CC-PVDZ-JKFIT
  Basis Set: 6-31+G*
    Blend: 6-31+G*
  Basis Set: (6-31+G* AUX)
    Blend: HEAVY-AUG-CC-PVDZ-JKFIT
  @DF-RKS Final Energy:   -77.33214866413313
    Total Energy =                        -77.3321486641331433
  Basis Set: 6-31+G*
  @DF-RKS Final Energy:   -77.33207091186208
    Total Energy =                        -77.3320709118620755
  @DF-RKS Final Energy:   -77.33222142329672
    Total Energy =                        -77.3322214232967156
  @DF-RKS Final Energy:   -77.33210636406899
    Total Energy =                        -77.3321063640689772
  @DF-RKS Final Energy:   -77.33218106652131
    Total Energy =                        -77.3321810665213150
  @DF-RKS Final Energy:   -77.33214857160911
    Total Energy =                        -77.3321485716090962
  @DF-RKS Final Energy:   -77.33214855035379
    Total Energy =                        -77.3321485503537929
  @DF-RKS Final Energy:   -77.33214857170640
    Total Energy =                        -77.3321485717063979
  @DF-RKS Final Energy:   -77.33214855037599
    Total Energy =                        -77.3321485503759902
  @DF-RKS Final Energy:   -77.33214836245151
    Total Energy =                        -77.3321483624515054
  Basis Set: (6-31+G* AUX)
    Blend: HEAVY-AUG-CC-PVDZ-JKFIT
  Basis Set: 6-31+G*
    Blend: 6-31+G*
  Basis Set: (6-31+G* AUX)
    Blend: HEAVY-AUG-CC-PVDZ-JKFIT
  @DF-RKS Final Energy:   -77.33214836250113
    Total Energy =                        -77.3321483625011297
  Basis Set: 6-31+G*
    Blend: 6-31+G*
  Basis Set: (6-31+G* AUX)
    Blend: HEAVY-AUG-CC-PVDZ-JKFIT
    Molecular point group: c2v
  Charge       = 0
  Multiplicity = 1
  Basis Set: 6-31+G*
    Blend: 6-31+G*
  Basis Set: (6-31+G* AUX)
    Blend: HEAVY-AUG-CC-PVDZ-JKFIT

    Orbital Energies [Eh]
    ---------------------

    Doubly Occupied:

       1A1   -10.214002     2A1   -10.211973     3A1    -0.753841
       4A1    -0.577250     5A1    -0.502200     1B2    -0.293655
       1B1    -0.293655

  @DF-RKS Final Energy:   -77.33214330490968

   => Energetics <=

    Nuclear Repulsion Energy =             24.3232393838559098
    One-Electron Energy =                -150.9486031898782699
    Two-Electron Energy =                  58.5533846157711011
    DFT Exchange-Correlation Energy =      -9.2601641146584193
    Empirical Dispersion Energy =           0.0000000000000000
    VV10 Nonlocal Energy =                  0.0000000000000000
    Total Energy =                        -77.3321433049096782

  Dipole Moment: [D]
     X:     0.0038      Y:     0.0000      Z:     0.0000     Total:     0.0038

    Molecular point group: c2v

    Geometry (in Angstrom), charge = 0, multiplicity = 1:

       Center              X                  Y                   Z               Mass
    ------------   -----------------  -----------------  -----------------  -----------------
         C           -0.614610333491     0.000000000000     0.000000000000    12.000000000000
         C            0.614309666509     0.000000000000     0.000000000000    12.000000000000
         H           -1.687440004874     0.000000000000     0.000000000000     1.007825032230
         H            1.691019995126     0.000000000000     0.000000000000     1.007825032230

  Basis Set: 6-31+G*
    Blend: 6-31+G*
  Basis Set: (6-31+G* AUX)
    Blend: HEAVY-AUG-CC-PVDZ-JKFIT

  -Total Gradient:
     Atom            X                  Y                   Z
    ------   -----------------  -----------------  -----------------
       1       -0.038338412400     0.000000000000     0.000000000000
       2        0.035415208302     0.000000000000     0.000000000000
       3       -0.003835345747     0.000000000000     0.000000000000
       4        0.006758573987     0.000000000000     0.000000000000

  Vibration                       4                   5                   6
  Freq [cm^-1]                 243.2673            243.2699            614.0255
  Irrep                          B1g                 B2g                 B1g
  Reduced mass [u]              2.1180              2.1180              1.6572
  Force const [mDyne/A]         0.0738              0.0739              0.3681

  Vibration                       7                   8                   9
  Freq [cm^-1]                 614.0263            798.5883            798.5886
  Irrep                          B2g                 B1u                 B2u
  Reduced mass [u]              1.6572              1.0848              1.0848
  Force const [mDyne/A]         0.3681              0.4076              0.4076

  Vibration                       10                  11                  12
  Freq [cm^-1]                1952.9511           3365.9106           3453.3399
  Irrep                           Ag                 B3u                  Ag
  Reduced mass [u]              4.0428              1.0848              1.2074
  Force const [mDyne/A]         9.0848              7.2412              8.4837

  ==> Thermochemistry Components <==

  Entropy, S
    Electronic S            0.000 [cal/(mol K)]        0.000 [J/(mol K)]       0.00000000 [mEh/K] (multiplicity = 1)
    Translational S        35.704 [cal/(mol K)]      149.387 [J/(mol K)]       0.05689862 [mEh/K] (mol. weight = 26.0157 [u], P = 101325.00 [Pa])
    Rotational S           10.952 [cal/(mol K)]       45.824 [J/(mol K)]       0.01745345 [mEh/K] (symmetry no. = 2)
    Vibrational S           4.829 [cal/(mol K)]       20.203 [J/(mol K)]       0.00769484 [mEh/K]
  Total S                  51.485 [cal/(mol K)]      215.414 [J/(mol K)]       0.08204691 [mEh/K]
  Correction S              0.000 [cal/(mol K)]        0.000 [J/(mol K)]       0.00000000 [mEh/K]

  Constant volume heat capacity, Cv
    Electronic Cv           0.000 [cal/(mol K)]        0.000 [J/(mol K)]       0.00000000 [mEh/K]
    Translational Cv        2.981 [cal/(mol K)]       12.472 [J/(mol K)]       0.00475022 [mEh/K]
    Rotational Cv           1.987 [cal/(mol K)]        8.314 [J/(mol K)]       0.00316681 [mEh/K]
    Vibrational Cv          6.873 [cal/(mol K)]       28.755 [J/(mol K)]       0.01095224 [mEh/K]
  Total Cv                 11.841 [cal/(mol K)]       49.541 [J/(mol K)]       0.01886927 [mEh/K]
  Correction Cv             0.000 [cal/(mol K)]        0.000 [J/(mol K)]       0.00000000 [mEh/K]

  Constant pressure heat capacity, Cp
    Electronic Cp           0.000 [cal/(mol K)]        0.000 [J/(mol K)]       0.00000000 [mEh/K]
    Translational Cp        4.968 [cal/(mol K)]       20.786 [J/(mol K)]       0.00791703 [mEh/K]
    Rotational Cp           1.987 [cal/(mol K)]        8.314 [J/(mol K)]       0.00316681 [mEh/K]
    Vibrational Cp          6.873 [cal/(mol K)]       28.755 [J/(mol K)]       0.01095224 [mEh/K]
  Total Cp                 13.828 [cal/(mol K)]       57.856 [J/(mol K)]       0.02203608 [mEh/K]
  Correction Cp             0.000 [cal/(mol K)]        0.000 [J/(mol K)]       0.00000000 [mEh/K]

  ==> Thermochemistry Energy Analysis <==

  Raw electronic energy, E0
  Total E0, Electronic energy at well bottom at 0 [K]                  -77.33214866 [Eh]

  Zero-point energy, ZPE_vib = Sum_i nu_i / 2
    Electronic ZPE          0.000 [kcal/mol]        0.000 [kJ/mol]       0.00000000 [Eh]
    Translational ZPE       0.000 [kcal/mol]        0.000 [kJ/mol]       0.00000000 [Eh]
    Rotational ZPE          0.000 [kcal/mol]        0.000 [kJ/mol]       0.00000000 [Eh]
    Vibrational ZPE        17.275 [kcal/mol]       72.278 [kJ/mol]       0.02752930 [Eh]        6041.984 [cm^-1]
  Correction ZPE           17.275 [kcal/mol]       72.278 [kJ/mol]       0.02752930 [Eh]        6041.984 [cm^-1]
  Total ZPE, Electronic energy at 0 [K]                                -77.30461936 [Eh]

  Thermal Energy, E (includes ZPE)
    Electronic E            0.000 [kcal/mol]        0.000 [kJ/mol]       0.00000000 [Eh]
    Translational E         0.889 [kcal/mol]        3.718 [kJ/mol]       0.00141628 [Eh]
    Rotational E            0.592 [kcal/mol]        2.479 [kJ/mol]       0.00094418 [Eh]
    Vibrational E          18.188 [kcal/mol]       76.099 [kJ/mol]       0.02898445 [Eh]
  Correction E             19.669 [kcal/mol]       82.296 [kJ/mol]       0.03134491 [Eh]
  Total E, Electronic energy at  298.15 [K]                            -77.30080376 [Eh]

  Enthalpy, H_trans = E_trans + k_B * T
    Electronic H            0.000 [kcal/mol]        0.000 [kJ/mol]       0.00000000 [Eh]
    Translational H         1.481 [kcal/mol]        6.197 [kJ/mol]       0.00236046 [Eh]
    Rotational H            0.592 [kcal/mol]        2.479 [kJ/mol]       0.00094418 [Eh]
    Vibrational H          18.188 [kcal/mol]       76.099 [kJ/mol]       0.02898445 [Eh]
  Correction H             20.262 [kcal/mol]       84.775 [kJ/mol]       0.03228909 [Eh]
  Total H, Enthalpy at  298.15 [K]                                     -77.29985957 [Eh]

  Gibbs free energy, G = H - T * S
    Electronic G            0.000 [kcal/mol]        0.000 [kJ/mol]       0.00000000 [Eh]
    Translational G        -9.164 [kcal/mol]      -38.342 [kJ/mol]      -0.01460386 [Eh]
    Rotational G           -2.673 [kcal/mol]      -11.183 [kJ/mol]      -0.00425956 [Eh]
    Vibrational G          16.748 [kcal/mol]       70.075 [kJ/mol]       0.02669023 [Eh]
  Correction G              4.911 [kcal/mol]       20.549 [kJ/mol]       0.00782681 [Eh]
  Total G, Free enthalpy at  298.15 [K]                                -77.32432186 [Eh]

*** Psi4 exiting successfully. Buy a developer a beer!
