                               Psi4 1.3.2 release

  ==> Input File <==

--------------------------------------------------------------------------
set basis  6-31++G**
molecule {
0 1
   C       -1.22151       -0.69325        0.00000
   C       -1.21114        0.71122        0.00000
   C       -0.01037       -1.40452        0.00000
   C        0.01037        1.40452        0.00000
   C        1.21114       -0.71122        0.00000
   C        1.22151        0.69325        0.00000
   H       -2.17311       -1.23332        0.00000
   H       -2.15464        1.26533        0.00000
   H       -0.01848       -2.49865        0.00000
   H        0.01848        2.49865        0.00000
   H        2.15464       -1.26533        0.00000
   H        2.17311        1.23332        0.00000
}
energy('B3LYP')
frequencies('B3LYP')
--------------------------------------------------------------------------

    Molecular point group: c2h
  Charge       = 0
  Multiplicity = 1
  Basis Set: 6-31++G**
    Blend: 6-31++G**
  Basis Set: (6-31++G** AUX)
    Blend: AUG-CC-PVDZ-JKFIT
  @DF-RKS Final Energy:  -232.26796055559197
    Total Energy =                       -232.2679605555919693
    Molecular point group: c2h
  Basis Set: 6-31++G**
    Blend: 6-31++G**
  Basis Set: (6-31++G** AUX)
    Blend: AUG-CC-PVDZ-JKFIT
  @DF-RKS Final Energy:  -232.26796055959142
    Total Energy =                       -232.2679605595913870
  Basis Set: 6-31++G**
    Blend: 6-31++G**
  Basis Set: (6-31++G** AUX)
    Blend: AUG-CC-PVDZ-JKFIT
  Basis Set: 6-31++G**
    Blend: 6-31++G**
  Basis Set: (6-31++G** AUX)
    Blend: AUG-CC-PVDZ-JKFIT
  @DF-RKS Final Energy:  -232.26796055449762
    Total Energy =                       -232.2679605544975914
  Basis Set: 6-31++G**
  @DF-RKS Final Energy:  -232.26797003435311
    Total Energy =                       -232.2679700343531124
  @DF-RKS Final Energy:  -232.26797280056817
    Total Energy =                       -232.2679728005681739
  @DF-RKS Final Energy:  -232.26796040387669
    Total Energy =                       -232.2679604038766570
  @DF-RKS Final Energy:  -232.26797128357342
    Total Energy =                       -232.2679712835734449
  @DF-RKS Final Energy:  -232.26796942474542
    Total Energy =                       -232.2679694247454165
  @DF-RKS Final Energy:  -232.26797148545032
    Total Energy =                       -232.2679714854502890
  @DF-RKS Final Energy:  -232.26795870054889
    Total Energy =                       -232.2679587005489168
  @DF-RKS Final Energy:  -232.26796414009945
    Total Energy =                       -232.2679641400994512
  @DF-RKS Final Energy:  -232.26796758689241
    Total Energy =                       -232.2679675868924392
  @DF-RKS Final Energy:  -232.26796985112304
    Total Energy =                       -232.2679698511230413
  @DF-RKS Final Energy:  -232.26797306315700
    Total Energy =                       -232.2679730631570010
  @DF-RKS Final Energy:  -232.26797627582835
    Total Energy =                       -232.2679762758283175
  @DF-RKS Final Energy:  -232.26793471911060
    Total Energy =                       -232.2679347191105990
  @DF-RKS Final Energy:  -232.26800246048427
    Total Energy =                       -232.2680024604842686
  @DF-RKS Final Energy:  -232.26794232984568
    Total Energy =                       -232.2679423298456527
  @DF-RKS Final Energy:  -232.26798214016998
    Total Energy =                       -232.2679821401699769
  @DF-RKS Final Energy:  -232.26793338103286
    Total Energy =                       -232.2679333810328615
  @DF-RKS Final Energy:  -232.26800837974520
    Total Energy =                       -232.2680083797451687
  @DF-RKS Final Energy:  -232.26796023473702
    Total Energy =                       -232.2679602347370178
  @DF-RKS Final Energy:  -232.26796020807771
    Total Energy =                       -232.2679602080777386
  @DF-RKS Final Energy:  -232.26796018065738
    Total Energy =                       -232.2679601806573544
  @DF-RKS Final Energy:  -232.26796009773997
    Total Energy =                       -232.2679600977400014
  @DF-RKS Final Energy:  -232.26796035606978
    Total Energy =                       -232.2679603560698069
  @DF-RKS Final Energy:  -232.26796035021115
    Total Energy =                       -232.2679603502111831
  @DF-RKS Final Energy:  -232.26796031451568
    Total Energy =                       -232.2679603145157046
  @DF-RKS Final Energy:  -232.26796018674935
    Total Energy =                       -232.2679601867493488
  @DF-RKS Final Energy:  -232.26796018287922
    Total Energy =                       -232.2679601828792215
  @DF-RKS Final Energy:  -232.26795960897624
    Total Energy =                       -232.2679596089762697
  @DF-RKS Final Energy:  -232.26795956780163
    Total Energy =                       -232.2679595678016256
  @DF-RKS Final Energy:  -232.26795942038365
    Total Energy =                       -232.2679594203836473
  @DF-RKS Final Energy:  -232.26795953536646
    Total Energy =                       -232.2679595353664865
  @DF-RKS Final Energy:  -232.26795840620585
    Total Energy =                       -232.2679584062058495
  @DF-RKS Final Energy:  -232.26795775371392
    Total Energy =                       -232.2679577537139153
  @DF-RKS Final Energy:  -232.26795776091029
    Total Energy =                       -232.2679577609102921
  @DF-RKS Final Energy:  -232.26795837024923
    Total Energy =                       -232.2679583702492039
  Basis Set: (6-31++G** AUX)
    Blend: AUG-CC-PVDZ-JKFIT
  Basis Set: 6-31++G**
    Blend: 6-31++G**
  Basis Set: (6-31++G** AUX)
    Blend: AUG-CC-PVDZ-JKFIT
  @DF-RKS Final Energy:  -232.26795867426196
    Total Energy =                       -232.2679586742619904
  Basis Set: 6-31++G**
    Blend: 6-31++G**
  Basis Set: (6-31++G** AUX)
    Blend: AUG-CC-PVDZ-JKFIT
    Molecular point group: cs
  Charge       = 0
  Multiplicity = 1
  Basis Set: 6-31++G**
    Blend: 6-31++G**
  Basis Set: (6-31++G** AUX)
    Blend: AUG-CC-PVDZ-JKFIT

    Orbital Energies [Eh]
    ---------------------

    Doubly Occupied:

       1Ap   -10.201518     2Ap   -10.201258     3Ap   -10.201229
       4Ap   -10.200723     5Ap   -10.200695     6Ap   -10.200436
       7Ap    -0.854205     8Ap    -0.748170     9Ap    -0.748166
      10Ap    -0.605279    11Ap    -0.605269    12Ap    -0.523919
      13Ap    -0.465840    14Ap    -0.447477    15Ap    -0.424612
      16Ap    -0.424607     1App   -0.368058    17Ap    -0.348763
      18Ap    -0.348739     2App   -0.257140     3App   -0.257133

  @DF-RKS Final Energy:  -232.26795746302994

   => Energetics <=

    Nuclear Repulsion Energy =            202.0133184684007119
    One-Electron Energy =                -711.0987012616931224
    Two-Electron Energy =                 304.8970006049429458
    DFT Exchange-Correlation Energy =     -28.0795752746804794
    Empirical Dispersion Energy =           0.0000000000000000
    VV10 Nonlocal Energy =                  0.0000000000000000
    Total Energy =                       -232.2679574630299442

  Dipole Moment: [D]
     X:    -0.0010      Y:    -0.0017      Z:     0.0000     Total:     0.0020

    Molecular point group: cs

    Geometry (in Angstrom), charge = 0, multiplicity = 1:

       Center              X                  Y                   Z               Mass
    ------------   -----------------  -----------------  -----------------  -----------------
         C           -1.221510000000    -0.693250000000     0.000000000000    12.000000000000
         C           -1.211140000000     0.711220000000     0.000000000000    12.000000000000
         C           -0.010370000000    -1.404520000000     0.000000000000    12.000000000000
         C            0.010370000000     1.404520000000     0.000000000000    12.000000000000
         C            1.211140000000    -0.711220000000     0.000000000000    12.000000000000
         C            1.221510000000     0.693250000000     0.000000000000    12.000000000000
         H           -2.173110000000    -1.233320000000     0.000000000000     1.007825032230
         H           -2.154640000000     1.264012202829     0.000000000000     1.007825032230
         H           -0.018480000000    -2.497332202829     0.000000000000     1.007825032230
         H            0.018480000000     2.499967797171     0.000000000000     1.007825032230
         H            2.154640000000    -1.266647797171     0.000000000000     1.007825032230
         H            2.173110000000     1.233320000000     0.000000000000     1.007825032230

  Basis Set: 6-31++G**
    Blend: 6-31++G**
  Basis Set: (6-31++G** AUX)
    Blend: AUG-CC-PVDZ-JKFIT

  -Total Gradient:
     Atom            X                  Y                   Z
    ------   -----------------  -----------------  -----------------
       1       -0.000694230392    -0.000308267261     0.000000000000
       2       -0.000861318568     0.000598383697     0.000000000000
       3        0.000035618312    -0.001566318529     0.000000000000
       4        0.000034365377    -0.000065012183     0.000000000000
       5        0.000326576410    -0.000010414257     0.000000000000
       6        0.000536008131     0.000310492865     0.000000000000
       7       -0.004598634509    -0.002616599246     0.000000000000
       8       -0.004256953413     0.002357725988     0.000000000000
       9       -0.000042048934    -0.004429106143     0.000000000000
      10        0.000043032917     0.006135056878     0.000000000000
      11        0.004870578066    -0.003016071860     0.000000000000
      12        0.004607199687     0.002610037883     0.000000000000

  Vibration                       7                   8                   9
  Freq [cm^-1]                 426.5140            426.7314            615.2504
  Irrep                           Au                  Au                  Ag
  Reduced mass [u]              2.9851              2.9844              6.3170
  Force const [mDyne/A]         0.3199              0.3202              1.4089

  Vibration                       10                  11                  12
  Freq [cm^-1]                 626.4424            712.9783            732.0503
  Irrep                           Ag                  Bg                  Au
  Reduced mass [u]              6.1189              3.9982              1.0848
  Force const [mDyne/A]         1.4148              1.1975              0.3425

  Vibration                       13                  14                  15
  Freq [cm^-1]                 893.1679            893.2530            996.4712
  Irrep                           Bg                  Bg                  Ag
  Reduced mass [u]              1.2479              1.2479              6.0157
  Force const [mDyne/A]         0.5865              0.5866              3.5194

  Vibration                       16                  17                  18
  Freq [cm^-1]                1005.9109           1005.9782           1014.0074
  Irrep                           Au                  Au                  Bu
  Reduced mass [u]              1.3504              1.3503              6.5426
  Force const [mDyne/A]         0.8051              0.8051              3.9636

  Vibration                       19                  20                  21
  Freq [cm^-1]                1030.7932           1058.6399           1058.7859
  Irrep                           Bg                  Bu                  Bu
  Reduced mass [u]              1.2114              1.7943              1.7925
  Force const [mDyne/A]         0.7584              1.1848              1.1839

  Vibration                       22                  23                  24
  Freq [cm^-1]                1181.5184           1200.9760           1206.5620
  Irrep                           Bu                  Ag                  Ag
  Reduced mass [u]              1.1744              1.1634              1.1499
  Force const [mDyne/A]         0.9659              0.9887              0.9863

  Vibration                       25                  26                  27
  Freq [cm^-1]                1328.7306           1386.7192           1512.4057
  Irrep                           Bu                  Ag                  Bu
  Reduced mass [u]              4.4629              1.2479              1.8993
  Force const [mDyne/A]         4.6424              1.4138              2.5597

  Vibration                       28                  29                  30
  Freq [cm^-1]                1514.1095           1619.1121           1628.5173
  Irrep                           Bu                  Ag                  Ag
  Reduced mass [u]              1.8983              4.7360              4.9653
  Force const [mDyne/A]         2.5641              7.3150              7.7585

  Vibration                       31                  32                  33
  Freq [cm^-1]                3100.7573           3110.2405           3110.6936
  Irrep                           Bu                  Ag                  Ag
  Reduced mass [u]              1.0837              1.0877              1.0879
  Force const [mDyne/A]         6.1387              6.1992              6.2022

  Vibration                       34                  35                  36
  Freq [cm^-1]                3126.0795           3127.0887           3136.1713
  Irrep                           Bu                  Bu                  Ag
  Reduced mass [u]              1.0953              1.0951              1.0995
  Force const [mDyne/A]         6.3062              6.3093              6.3714

  ==> Thermochemistry Components <==

  Entropy, S
    Electronic S            0.000 [cal/(mol K)]        0.000 [J/(mol K)]       0.00000000 [mEh/K] (multiplicity = 1)
    Translational S        38.979 [cal/(mol K)]      163.089 [J/(mol K)]       0.06211726 [mEh/K] (mol. weight = 78.0470 [u], P = 101325.00 [Pa])
    Rotational S           24.318 [cal/(mol K)]      101.746 [J/(mol K)]       0.03875307 [mEh/K] (symmetry no. = 2)
    Vibrational S           4.220 [cal/(mol K)]       17.656 [J/(mol K)]       0.00672474 [mEh/K]
  Total S                  67.517 [cal/(mol K)]      282.491 [J/(mol K)]       0.10759508 [mEh/K]
  Correction S              0.000 [cal/(mol K)]        0.000 [J/(mol K)]       0.00000000 [mEh/K]

  Constant volume heat capacity, Cv
    Electronic Cv           0.000 [cal/(mol K)]        0.000 [J/(mol K)]       0.00000000 [mEh/K]
    Translational Cv        2.981 [cal/(mol K)]       12.472 [J/(mol K)]       0.00475022 [mEh/K]
    Rotational Cv           2.981 [cal/(mol K)]       12.472 [J/(mol K)]       0.00475022 [mEh/K]
    Vibrational Cv         10.965 [cal/(mol K)]       45.876 [J/(mol K)]       0.01747309 [mEh/K]
  Total Cv                 16.926 [cal/(mol K)]       70.819 [J/(mol K)]       0.02697352 [mEh/K]
  Correction Cv             0.000 [cal/(mol K)]        0.000 [J/(mol K)]       0.00000000 [mEh/K]

  Constant pressure heat capacity, Cp
    Electronic Cp           0.000 [cal/(mol K)]        0.000 [J/(mol K)]       0.00000000 [mEh/K]
    Translational Cp        4.968 [cal/(mol K)]       20.786 [J/(mol K)]       0.00791703 [mEh/K]
    Rotational Cp           2.981 [cal/(mol K)]       12.472 [J/(mol K)]       0.00475022 [mEh/K]
    Vibrational Cp         10.965 [cal/(mol K)]       45.876 [J/(mol K)]       0.01747309 [mEh/K]
  Total Cp                 18.913 [cal/(mol K)]       79.133 [J/(mol K)]       0.03014033 [mEh/K]
  Correction Cp             0.000 [cal/(mol K)]        0.000 [J/(mol K)]       0.00000000 [mEh/K]

  ==> Thermochemistry Energy Analysis <==

  Raw electronic energy, E0
  Total E0, Electronic energy at well bottom at 0 [K]                 -232.26796055 [Eh]

  Zero-point energy, ZPE_vib = Sum_i nu_i / 2
    Electronic ZPE          0.000 [kcal/mol]        0.000 [kJ/mol]       0.00000000 [Eh]
    Translational ZPE       0.000 [kcal/mol]        0.000 [kJ/mol]       0.00000000 [Eh]
    Rotational ZPE          0.000 [kcal/mol]        0.000 [kJ/mol]       0.00000000 [Eh]
    Vibrational ZPE        62.596 [kcal/mol]      261.902 [kJ/mol]       0.09975334 [Eh]       21893.328 [cm^-1]
  Correction ZPE           62.596 [kcal/mol]      261.902 [kJ/mol]       0.09975334 [Eh]       21893.328 [cm^-1]
  Total ZPE, Electronic energy at 0 [K]                               -232.16820721 [Eh]

  Thermal Energy, E (includes ZPE)
    Electronic E            0.000 [kcal/mol]        0.000 [kJ/mol]       0.00000000 [Eh]
    Translational E         0.889 [kcal/mol]        3.718 [kJ/mol]       0.00141628 [Eh]
    Rotational E            0.889 [kcal/mol]        3.718 [kJ/mol]       0.00141628 [Eh]
    Vibrational E          63.540 [kcal/mol]      265.853 [kJ/mol]       0.10125817 [Eh]
  Correction E             65.318 [kcal/mol]      273.290 [kJ/mol]       0.10409072 [Eh]
  Total E, Electronic energy at  298.15 [K]                           -232.16386983 [Eh]

  Enthalpy, H_trans = E_trans + k_B * T
    Electronic H            0.000 [kcal/mol]        0.000 [kJ/mol]       0.00000000 [Eh]
    Translational H         1.481 [kcal/mol]        6.197 [kJ/mol]       0.00236046 [Eh]
    Rotational H            0.889 [kcal/mol]        3.718 [kJ/mol]       0.00141628 [Eh]
    Vibrational H          63.540 [kcal/mol]      265.853 [kJ/mol]       0.10125817 [Eh]
  Correction H             65.910 [kcal/mol]      275.769 [kJ/mol]       0.10503490 [Eh]
  Total H, Enthalpy at  298.15 [K]                                    -232.16292565 [Eh]

  Gibbs free energy, G = H - T * S
    Electronic G            0.000 [kcal/mol]        0.000 [kJ/mol]       0.00000000 [Eh]
    Translational G       -10.140 [kcal/mol]      -42.428 [kJ/mol]      -0.01615980 [Eh]
    Rotational G           -6.362 [kcal/mol]      -26.617 [kJ/mol]      -0.01013795 [Eh]
    Vibrational G          62.282 [kcal/mol]      260.589 [kJ/mol]       0.09925318 [Eh]
  Correction G             45.780 [kcal/mol]      191.544 [kJ/mol]       0.07295543 [Eh]
  Total G, Free enthalpy at  298.15 [K]                               -232.19500512 [Eh]

*** Psi4 exiting successfully. Buy a developer a beer!
