                               Psi4 1.3.2 release

  ==> Input File <==

--------------------------------------------------------------------------
set basis  cc-pVDZ
molecule {
0 1
   C       -0.61446        0.00000        0.00000
   C        0.61446        0.00000        0.00000
   H       -1.68923        0.00000        0.00000
   H        1.68923        0.00000        0.00000
}
energy('CCSD')
frequencies('CCSD')
--------------------------------------------------------------------------

    Molecular point group: d2h
  Charge       = 0
  Multiplicity = 1
  Basis Set: CC-PVDZ
    Blend: CC-PVDZ
  @RHF Final Energy:   -76.82289554957055
    Total Energy =                        -76.8228955495705463
      * MP2 total energy                      =  -77.087370175539064
      * CCSD total energy                     =  -77.103499609116525
    Molecular point group: d2h
  Basis Set: CC-PVDZ
    Blend: CC-PVDZ
  @RHF Final Energy:   -76.82289554957063
    Total Energy =                        -76.8228955495706316
      * MP2 total energy                      =  -77.087370176644853
      * CCSD total energy                     =  -77.103499610643041
  Basis Set: CC-PVDZ
    Blend: CC-PVDZ
  @RHF Final Energy:   -76.82289554957063
    Total Energy =                        -76.8228955495706316
      * MP2 total energy                      =  -77.087370176644853
      * CCSD total energy                     =  -77.103499610338901
  Basis Set: CC-PVDZ
    Blend: CC-PVDZ
  @RHF Final Energy:   -76.82274320431448
    Total Energy =                        -76.8227432043144915
      * MP2 total energy                      =  -77.087367309894745
      * CCSD total energy                     =  -77.103465273313645
  @RHF Final Energy:   -76.82304255686128
    Total Energy =                        -76.8230425568612816
      * MP2 total energy                      =  -77.087367945373870
      * CCSD total energy                     =  -77.103528735201124
  @RHF Final Energy:   -76.82282989760147
    Total Energy =                        -76.8228298976014656
      * MP2 total energy                      =  -77.087365455134616
      * CCSD total energy                     =  -77.103506630401867
  @RHF Final Energy:   -76.82295066797312
    Total Energy =                        -76.8229506679731173
      * MP2 total energy                      =  -77.087364440301059
      * CCSD total energy                     =  -77.103482169179983
  @RHF Final Energy:   -76.82289524407355
    Total Energy =                        -76.8228952440735355
      * MP2 total energy                      =  -77.087370028301763
      * CCSD total energy                     =  -77.103499462443665
  Basis Set: CC-PVDZ
    Blend: CC-PVDZ
  @RHF Final Energy:   -76.82289524407349
    Total Energy =                        -76.8228952440734929
      * MP2 total energy                      =  -77.087370028301820
      * CCSD total energy                     =  -77.103499462443722
  Basis Set: CC-PVDZ
    Blend: CC-PVDZ
  @RHF Final Energy:   -76.82289516112807
    Total Energy =                        -76.8228951611280593
      * MP2 total energy                      =  -77.087369909583344
      * CCSD total energy                     =  -77.103499351845116
  Basis Set: CC-PVDZ
    Blend: CC-PVDZ
  @RHF Final Energy:   -76.82289516112829
    Total Energy =                        -76.8228951611282866
      * MP2 total energy                      =  -77.087369909583444
      * CCSD total energy                     =  -77.103499351845201
    Molecular point group: c2v
  Charge       = 0
  Multiplicity = 1
  Basis Set: CC-PVDZ
    Blend: CC-PVDZ

    Orbital Energies [Eh]
    ---------------------

    Doubly Occupied:

       1A1   -11.256188     2A1   -11.253029     3A1    -1.019042
       4A1    -0.762391     5A1    -0.670451     1B1    -0.400224
       1B2    -0.400224

  @RHF Final Energy:   -76.82288983994380

   => Energetics <=

    Nuclear Repulsion Energy =             24.3232393838559098
    One-Electron Energy =                -150.7691597228592570
    Two-Electron Energy =                  49.6230304990595599
    Total Energy =                        -76.8228898399437981

  Dipole Moment: [D]
     X:     0.0044      Y:     0.0000      Z:     0.0000     Total:     0.0044

      * MP2 total energy                      =  -77.087364512963561
      * CCSD total energy                     =  -77.103493972464577
    Molecular point group: c2v

    Geometry (in Bohr), charge = 0, multiplicity = 1:

       Center              X                  Y                   Z
    ------------   -----------------  -----------------  -----------------
         C           -1.161445204175     0.000000000000     0.000000000000
         C            1.160877025923     0.000000000000     0.000000000000
         H           -3.188799462353     0.000000000000     0.000000000000
         H            3.195564663461     0.000000000000     0.000000000000

  -Total gradient:
     Atom            X                  Y                   Z
    ------   -----------------  -----------------  -----------------
       1       -0.017093045193     0.000000000000     0.000000000000
       2        0.014017835996     0.000000000000     0.000000000000
       3        0.003279862419     0.000000000000     0.000000000000
       4       -0.000204653222     0.000000000000     0.000000000000

  Vibration                       6                   7                   8
  Freq [cm^-1]                 559.1483            559.1483            739.2342
  Irrep                          B1g                 B2g                 B1u
  Reduced mass [u]              1.5641              1.5641              1.0848
  Force const [mDyne/A]         0.2881              0.2881              0.3493

  Vibration                       9                   10                  11
  Freq [cm^-1]                 739.2342           1995.3926           3452.3012
  Irrep                          B2u                  Ag                 B3u
  Reduced mass [u]              1.0848              4.0731              1.0848
  Force const [mDyne/A]         0.3493              9.5550              7.6177

  Vibration                       12
  Freq [cm^-1]                3541.5561
  Irrep                           Ag
  Reduced mass [u]              1.2047
  Force const [mDyne/A]         8.9029

  ==> Thermochemistry Components <==

  Entropy, S
    Electronic S            0.000 [cal/(mol K)]        0.000 [J/(mol K)]       0.00000000 [mEh/K] (multiplicity = 1)
    Translational S        35.704 [cal/(mol K)]      149.387 [J/(mol K)]       0.05689862 [mEh/K] (mol. weight = 26.0157 [u], P = 101325.00 [Pa])
    Rotational S           10.952 [cal/(mol K)]       45.824 [J/(mol K)]       0.01745345 [mEh/K] (symmetry no. = 2)
    Vibrational S           1.578 [cal/(mol K)]        6.603 [J/(mol K)]       0.00251498 [mEh/K]
  Total S                  48.235 [cal/(mol K)]      201.814 [J/(mol K)]       0.07686705 [mEh/K]
  Correction S              0.000 [cal/(mol K)]        0.000 [J/(mol K)]       0.00000000 [mEh/K]

  Constant volume heat capacity, Cv
    Electronic Cv           0.000 [cal/(mol K)]        0.000 [J/(mol K)]       0.00000000 [mEh/K]
    Translational Cv        2.981 [cal/(mol K)]       12.472 [J/(mol K)]       0.00475022 [mEh/K]
    Rotational Cv           1.987 [cal/(mol K)]        8.314 [J/(mol K)]       0.00316681 [mEh/K]
    Vibrational Cv          3.764 [cal/(mol K)]       15.747 [J/(mol K)]       0.00599775 [mEh/K]
  Total Cv                  8.732 [cal/(mol K)]       36.533 [J/(mol K)]       0.01391477 [mEh/K]
  Correction Cv             0.000 [cal/(mol K)]        0.000 [J/(mol K)]       0.00000000 [mEh/K]

  Constant pressure heat capacity, Cp
    Electronic Cp           0.000 [cal/(mol K)]        0.000 [J/(mol K)]       0.00000000 [mEh/K]
    Translational Cp        4.968 [cal/(mol K)]       20.786 [J/(mol K)]       0.00791703 [mEh/K]
    Rotational Cp           1.987 [cal/(mol K)]        8.314 [J/(mol K)]       0.00316681 [mEh/K]
    Vibrational Cp          3.764 [cal/(mol K)]       15.747 [J/(mol K)]       0.00599775 [mEh/K]
  Total Cp                 10.719 [cal/(mol K)]       44.848 [J/(mol K)]       0.01708158 [mEh/K]
  Correction Cp             0.000 [cal/(mol K)]        0.000 [J/(mol K)]       0.00000000 [mEh/K]

  ==> Thermochemistry Energy Analysis <==

  Raw electronic energy, E0
  Total E0, Electronic energy at well bottom at 0 [K]                  -77.10349961 [Eh]

  Zero-point energy, ZPE_vib = Sum_i nu_i / 2
    Electronic ZPE          0.000 [kcal/mol]        0.000 [kJ/mol]       0.00000000 [Eh]
    Translational ZPE       0.000 [kcal/mol]        0.000 [kJ/mol]       0.00000000 [Eh]
    Rotational ZPE          0.000 [kcal/mol]        0.000 [kJ/mol]       0.00000000 [Eh]
    Vibrational ZPE        16.563 [kcal/mol]       69.300 [kJ/mol]       0.02639488 [Eh]        5793.007 [cm^-1]
  Correction ZPE           16.563 [kcal/mol]       69.300 [kJ/mol]       0.02639488 [Eh]        5793.007 [cm^-1]
  Total ZPE, Electronic energy at 0 [K]                                -77.07710473 [Eh]

  Thermal Energy, E (includes ZPE)
    Electronic E            0.000 [kcal/mol]        0.000 [kJ/mol]       0.00000000 [Eh]
    Translational E         0.889 [kcal/mol]        3.718 [kJ/mol]       0.00141628 [Eh]
    Rotational E            0.592 [kcal/mol]        2.479 [kJ/mol]       0.00094418 [Eh]
    Vibrational E          16.917 [kcal/mol]       70.781 [kJ/mol]       0.02695898 [Eh]
  Correction E             18.398 [kcal/mol]       76.978 [kJ/mol]       0.02931944 [Eh]
  Total E, Electronic energy at  298.15 [K]                            -77.07418017 [Eh]

  Enthalpy, H_trans = E_trans + k_B * T
    Electronic H            0.000 [kcal/mol]        0.000 [kJ/mol]       0.00000000 [Eh]
    Translational H         1.481 [kcal/mol]        6.197 [kJ/mol]       0.00236046 [Eh]
    Rotational H            0.592 [kcal/mol]        2.479 [kJ/mol]       0.00094418 [Eh]
    Vibrational H          16.917 [kcal/mol]       70.781 [kJ/mol]       0.02695898 [Eh]
  Correction H             18.991 [kcal/mol]       79.457 [kJ/mol]       0.03026362 [Eh]
  Total H, Enthalpy at  298.15 [K]                                     -77.07323599 [Eh]

  Gibbs free energy, G = H - T * S
    Electronic G            0.000 [kcal/mol]        0.000 [kJ/mol]       0.00000000 [Eh]
    Translational G        -9.164 [kcal/mol]      -38.342 [kJ/mol]      -0.01460386 [Eh]
    Rotational G           -2.673 [kcal/mol]      -11.183 [kJ/mol]      -0.00425956 [Eh]
    Vibrational G          16.446 [kcal/mol]       68.812 [kJ/mol]       0.02620913 [Eh]
  Correction G              4.610 [kcal/mol]       19.286 [kJ/mol]       0.00734571 [Eh]
  Total G, Free enthalpy at  298.15 [K]                                -77.09615390 [Eh]

*** Psi4 exiting successfully. Buy a developer a beer!
