                               Psi4 1.3.2 release

  ==> Input File <==

--------------------------------------------------------------------------
set basis  6-31+G*
molecule {
0 1
   O        0.00000        0.00000        0.49152
   C        0.00000        0.00000       -0.65516
}
energy('MP2')
frequencies('MP2')
--------------------------------------------------------------------------

    Molecular point group: c2v
  Charge       = 0
  Multiplicity = 1
  Basis Set: 6-31+G*
    Blend: 6-31+G*
  Basis Set: (6-31+G* AUX)
    Blend: HEAVY-AUG-CC-PVDZ-JKFIT
  @DF-RHF Final Energy:  -112.73901416157409
    Total Energy =                       -112.7390141615740902
  Basis Set: (6-31+G* AUX)
    Blend: HEAVY-AUG-CC-PVDZ-RI
	 Reference Energy          =    -112.7390141615740902 [Eh]
	 Singles Energy            =      -0.0000000000000000 [Eh]
	 Same-Spin Energy          =      -0.0787389544801893 [Eh]
	 Opposite-Spin Energy      =      -0.2185178257604099 [Eh]
	 Correlation Energy        =      -0.2972567802405992 [Eh]
	 Total Energy              =    -113.0362709418146920 [Eh]
	 SCS Total Energy          =    -113.0274818706466391 [Eh]
    Molecular point group: c2v
  Basis Set: 6-31+G*
    Blend: 6-31+G*
  Basis Set: (6-31+G* AUX)
    Blend: HEAVY-AUG-CC-PVDZ-JKFIT
  @DF-RHF Final Energy:  -112.73901416157410
    Total Energy =                       -112.7390141615741044
  Basis Set: (6-31+G* AUX)
  @DF-RHF Final Energy:  -112.73901416157410
    Total Energy =                       -112.7390141615741044
  @DF-RHF Final Energy:  -112.73917718549536
    Total Energy =                       -112.7391771854953646
    Molecular point group: c2v
  Charge       = 0
  Multiplicity = 1
  Basis Set: 6-31+G*
    Blend: 6-31+G*
  Basis Set: (6-31+G* AUX)
    Blend: HEAVY-AUG-CC-PVDZ-JKFIT

    Orbital Energies [Eh]
    ---------------------

    Doubly Occupied:

       1A1   -20.686381     2A1   -11.380761     3A1    -1.515606
       4A1    -0.803054     1B2    -0.633131     1B1    -0.633131
       5A1    -0.557664

  @DF-RHF Final Energy:  -112.73884669296277

   => Energetics <=

    Nuclear Repulsion Energy =             22.1318434565547548
    One-Electron Energy =                -197.3219246481849609
    Two-Electron Energy =                  62.4512344986674393
    Total Energy =                       -112.7388466929627668

  Dipole Moment: [D]
     X:     0.0000      Y:     0.0000      Z:    -0.4257     Total:     0.4257

  Basis Set: (6-31+G* AUX)
    Blend: HEAVY-AUG-CC-PVDZ-RI
    Molecular point group: c2v

    Geometry (in Angstrom), charge = 0, multiplicity = 1:

       Center              X                  Y                   Z               Mass
    ------------   -----------------  -----------------  -----------------  -----------------
         O            0.000000000000     0.000000000000     0.491956699505    15.994914619570
         C            0.000000000000     0.000000000000    -0.655733783759    12.000000000000

  Basis Set: 6-31+G*
    Blend: 6-31+G*
  Basis Set: (6-31+G* AUX)
    Blend: HEAVY-AUG-CC-PVDZ-JKFIT
  Basis Set: (6-31+G* AUX)
    Blend: HEAVY-AUG-CC-PVDZ-JKFIT
	 Reference Energy          =    -112.7388466929627668 [Eh]
	 Singles Energy            =      -0.0000000000000000 [Eh]
	 Same-Spin Energy          =      -0.0787944384659816 [Eh]
	 Opposite-Spin Energy      =      -0.2186435131904718 [Eh]
	 Correlation Energy        =      -0.2974379516564534 [Eh]
	 Total Energy              =    -113.0362846446192151 [Eh]

	 ================> DF-SCS-MP2 Energies <==================
	-----------------------------------------------------------
	 SCS Same-Spin Scale       =       0.3333333333333333 [-]
	 SCS Opposite-Spin Scale   =       1.2000000000000000 [-]
	 SCS Same-Spin Energy      =      -0.0262648128219939 [Eh]
	 SCS Opposite-Spin Energy  =      -0.2623722158285661 [Eh]
	 SCS Correlation Energy    =      -0.2886370286505600 [Eh]
	 SCS Total Energy          =    -113.0274837216133221 [Eh]
	-----------------------------------------------------------

  -Total Gradient:
     Atom            X                  Y                   Z
    ------   -----------------  -----------------  -----------------
       1        0.000000000000     0.000000000000    -0.006045729397
       2        0.000000000000    -0.000000000000     0.006045729396

  Vibration                       6
  Freq [cm^-1]                2141.0051
  Irrep                           A1
  Reduced mass [u]             13.4388
  Force const [mDyne/A]        36.2948

  ==> Thermochemistry Components <==

  Entropy, S
    Electronic S            0.000 [cal/(mol K)]        0.000 [J/(mol K)]       0.00000000 [mEh/K] (multiplicity = 1)
    Translational S        35.923 [cal/(mol K)]      150.302 [J/(mol K)]       0.05724692 [mEh/K] (mol. weight = 27.9949 [u], P = 101325.00 [Pa])
    Rotational S           11.343 [cal/(mol K)]       47.458 [J/(mol K)]       0.01807582 [mEh/K] (symmetry no. = 1)
    Vibrational S           0.001 [cal/(mol K)]        0.003 [J/(mol K)]       0.00000117 [mEh/K]
  Total S                  47.266 [cal/(mol K)]      197.763 [J/(mol K)]       0.07532392 [mEh/K]
  Correction S              0.000 [cal/(mol K)]        0.000 [J/(mol K)]       0.00000000 [mEh/K]

  Constant volume heat capacity, Cv
    Electronic Cv           0.000 [cal/(mol K)]        0.000 [J/(mol K)]       0.00000000 [mEh/K]
    Translational Cv        2.981 [cal/(mol K)]       12.472 [J/(mol K)]       0.00475022 [mEh/K]
    Rotational Cv           1.987 [cal/(mol K)]        8.314 [J/(mol K)]       0.00316681 [mEh/K]
    Vibrational Cv          0.007 [cal/(mol K)]        0.029 [J/(mol K)]       0.00001101 [mEh/K]
  Total Cv                  4.975 [cal/(mol K)]       20.815 [J/(mol K)]       0.00792804 [mEh/K]
  Correction Cv             0.000 [cal/(mol K)]        0.000 [J/(mol K)]       0.00000000 [mEh/K]

  Constant pressure heat capacity, Cp
    Electronic Cp           0.000 [cal/(mol K)]        0.000 [J/(mol K)]       0.00000000 [mEh/K]
    Translational Cp        4.968 [cal/(mol K)]       20.786 [J/(mol K)]       0.00791703 [mEh/K]
    Rotational Cp           1.987 [cal/(mol K)]        8.314 [J/(mol K)]       0.00316681 [mEh/K]
    Vibrational Cp          0.007 [cal/(mol K)]        0.029 [J/(mol K)]       0.00001101 [mEh/K]
  Total Cp                  6.962 [cal/(mol K)]       29.130 [J/(mol K)]       0.01109485 [mEh/K]
  Correction Cp             0.000 [cal/(mol K)]        0.000 [J/(mol K)]       0.00000000 [mEh/K]

  ==> Thermochemistry Energy Analysis <==

  Raw electronic energy, E0
  Total E0, Electronic energy at well bottom at 0 [K]                 -113.03627094 [Eh]

  Zero-point energy, ZPE_vib = Sum_i nu_i / 2
    Electronic ZPE          0.000 [kcal/mol]        0.000 [kJ/mol]       0.00000000 [Eh]
    Translational ZPE       0.000 [kcal/mol]        0.000 [kJ/mol]       0.00000000 [Eh]
    Rotational ZPE          0.000 [kcal/mol]        0.000 [kJ/mol]       0.00000000 [Eh]
    Vibrational ZPE         3.061 [kcal/mol]       12.806 [kJ/mol]       0.00487757 [Eh]        1070.503 [cm^-1]
  Correction ZPE            3.061 [kcal/mol]       12.806 [kJ/mol]       0.00487757 [Eh]        1070.503 [cm^-1]
  Total ZPE, Electronic energy at 0 [K]                               -113.03139337 [Eh]

  Thermal Energy, E (includes ZPE)
    Electronic E            0.000 [kcal/mol]        0.000 [kJ/mol]       0.00000000 [Eh]
    Translational E         0.889 [kcal/mol]        3.718 [kJ/mol]       0.00141628 [Eh]
    Rotational E            0.592 [kcal/mol]        2.479 [kJ/mol]       0.00094418 [Eh]
    Vibrational E           3.061 [kcal/mol]       12.807 [kJ/mol]       0.00487789 [Eh]
  Correction E              4.542 [kcal/mol]       19.004 [kJ/mol]       0.00723835 [Eh]
  Total E, Electronic energy at  298.15 [K]                           -113.02903259 [Eh]

  Enthalpy, H_trans = E_trans + k_B * T
    Electronic H            0.000 [kcal/mol]        0.000 [kJ/mol]       0.00000000 [Eh]
    Translational H         1.481 [kcal/mol]        6.197 [kJ/mol]       0.00236046 [Eh]
    Rotational H            0.592 [kcal/mol]        2.479 [kJ/mol]       0.00094418 [Eh]
    Vibrational H           3.061 [kcal/mol]       12.807 [kJ/mol]       0.00487789 [Eh]
  Correction H              5.135 [kcal/mol]       21.483 [kJ/mol]       0.00818253 [Eh]
  Total H, Enthalpy at  298.15 [K]                                    -113.02808841 [Eh]

  Gibbs free energy, G = H - T * S
    Electronic G            0.000 [kcal/mol]        0.000 [kJ/mol]       0.00000000 [Eh]
    Translational G        -9.229 [kcal/mol]      -38.615 [kJ/mol]      -0.01470771 [Eh]
    Rotational G           -2.789 [kcal/mol]      -11.671 [kJ/mol]      -0.00444512 [Eh]
    Vibrational G           3.061 [kcal/mol]       12.806 [kJ/mol]       0.00487754 [Eh]
  Correction G             -8.958 [kcal/mol]      -37.480 [kJ/mol]      -0.01427529 [Eh]
  Total G, Free enthalpy at  298.15 [K]                               -113.05054624 [Eh]

*** Psi4 exiting successfully. Buy a developer a beer!
