                               Psi4 1.3.2 release

  ==> Input File <==

--------------------------------------------------------------------------
set basis  6-311++g**
molecule {
0 1
   C       -0.61446        0.00000        0.00000
   C        0.61446        0.00000        0.00000
   H       -1.68923        0.00000        0.00000
   H        1.68923        0.00000        0.00000
}
energy('m06-2x')
frequencies('m06-2x')
--------------------------------------------------------------------------

    Molecular point group: d2h
  Charge       = 0
  Multiplicity = 1
  Basis Set: 6-311++G**
    Blend: 6-311++G**
  Basis Set: (6-311++G** AUX)
    Blend: AUG-CC-PVTZ-JKFIT
  @DF-RKS Final Energy:   -77.31418710170765
    Total Energy =                        -77.3141871017076312
    Molecular point group: d2h
  Basis Set: 6-311++G**
    Blend: 6-311++G**
  Basis Set: (6-311++G** AUX)
    Blend: AUG-CC-PVTZ-JKFIT
  @DF-RKS Final Energy:   -77.31418710178072
    Total Energy =                        -77.3141871017807034
  Basis Set: 6-311++G**
    Blend: 6-311++G**
  Basis Set: (6-311++G** AUX)
    Blend: AUG-CC-PVTZ-JKFIT
  Basis Set: 6-311++G**
    Blend: 6-311++G**
  Basis Set: (6-311++G** AUX)
    Blend: AUG-CC-PVTZ-JKFIT
  @DF-RKS Final Energy:   -77.31418710178072
    Total Energy =                        -77.3141871017807034
  Basis Set: 6-311++G**
  @DF-RKS Final Energy:   -77.31407085302639
    Total Energy =                        -77.3140708530264078
  @DF-RKS Final Energy:   -77.31429846090658
    Total Energy =                        -77.3142984609065991
  @DF-RKS Final Energy:   -77.31413020424394
    Total Energy =                        -77.3141302042439378
  @DF-RKS Final Energy:   -77.31423425839094
    Total Energy =                        -77.3142342583909254
  @DF-RKS Final Energy:   -77.31418696695441
    Total Energy =                        -77.3141869669544093
  @DF-RKS Final Energy:   -77.31418693913145
    Total Energy =                        -77.3141869391314458
  @DF-RKS Final Energy:   -77.31418696698756
    Total Energy =                        -77.3141869669875774
  @DF-RKS Final Energy:   -77.31418693918789
    Total Energy =                        -77.3141869391878771
  @DF-RKS Final Energy:   -77.31418677094074
    Total Energy =                        -77.3141867709407364
  Basis Set: (6-311++G** AUX)
    Blend: AUG-CC-PVTZ-JKFIT
  Basis Set: 6-311++G**
    Blend: 6-311++G**
  Basis Set: (6-311++G** AUX)
    Blend: AUG-CC-PVTZ-JKFIT
  @DF-RKS Final Energy:   -77.31418677100513
    Total Energy =                        -77.3141867710051258
  Basis Set: 6-311++G**
    Blend: 6-311++G**
  Basis Set: (6-311++G** AUX)
    Blend: AUG-CC-PVTZ-JKFIT
    Molecular point group: c2v
  Charge       = 0
  Multiplicity = 1
  Basis Set: 6-311++G**
    Blend: 6-311++G**
  Basis Set: (6-311++G** AUX)
    Blend: AUG-CC-PVTZ-JKFIT

    Orbital Energies [Eh]
    ---------------------

    Doubly Occupied:

       1A1   -10.557829     2A1   -10.555549     3A1    -0.846979
       4A1    -0.648021     5A1    -0.564678     1B1    -0.352956
       1B2    -0.352956

  @DF-RKS Final Energy:   -77.31418182530624

   => Energetics <=

    Nuclear Repulsion Energy =             24.3232393838559098
    One-Electron Energy =                -150.9818503721416221
    Two-Electron Energy =                  54.8625800643818451
    DFT Exchange-Correlation Energy =      -5.5181509014023673
    Empirical Dispersion Energy =           0.0000000000000000
    VV10 Nonlocal Energy =                  0.0000000000000000
    Total Energy =                        -77.3141818253062354

  Dipole Moment: [D]
     X:     0.0043      Y:     0.0000      Z:     0.0000     Total:     0.0043

    Molecular point group: c2v

    Geometry (in Angstrom), charge = 0, multiplicity = 1:

       Center              X                  Y                   Z               Mass
    ------------   -----------------  -----------------  -----------------  -----------------
         C           -0.614610333491     0.000000000000     0.000000000000    12.000000000000
         C            0.614309666509     0.000000000000     0.000000000000    12.000000000000
         H           -1.687440004874     0.000000000000     0.000000000000     1.007825032230
         H            1.691019995126     0.000000000000     0.000000000000     1.007825032230

  Basis Set: 6-311++G**
    Blend: 6-311++G**
  Basis Set: (6-311++G** AUX)
    Blend: AUG-CC-PVTZ-JKFIT

  -Total Gradient:
     Atom            X                  Y                   Z
    ------   -----------------  -----------------  -----------------
       1       -0.057095520079     0.000000000000     0.000000000000
       2        0.054217506125     0.000000000000     0.000000000000
       3       -0.005929785460     0.000000000000     0.000000000000
       4        0.008803560542     0.000000000000     0.000000000000

  Vibration                       4                   5                   6
  Freq [cm^-1]                 294.8916            294.8926            734.5916
  Irrep                          B2g                 B1g                 B2g
  Reduced mass [u]              2.0805              2.0805              1.6809
  Force const [mDyne/A]         0.1066              0.1066              0.5344

  Vibration                       7                   8                   9
  Freq [cm^-1]                 734.5920            833.4063            833.4064
  Irrep                          B1g                 B1u                 B2u
  Reduced mass [u]              1.6809              1.0848              1.0848
  Force const [mDyne/A]         0.5344              0.4439              0.4439

  Vibration                       10                  11                  12
  Freq [cm^-1]                1922.7668           3337.5098           3427.6826
  Irrep                           Ag                 B3u                  Ag
  Reduced mass [u]              4.0146              1.0848              1.2100
  Force const [mDyne/A]         8.7448              7.1195              8.3757

  ==> Thermochemistry Components <==

  Entropy, S
    Electronic S            0.000 [cal/(mol K)]        0.000 [J/(mol K)]       0.00000000 [mEh/K] (multiplicity = 1)
    Translational S        35.704 [cal/(mol K)]      149.387 [J/(mol K)]       0.05689862 [mEh/K] (mol. weight = 26.0157 [u], P = 101325.00 [Pa])
    Rotational S           10.952 [cal/(mol K)]       45.824 [J/(mol K)]       0.01745345 [mEh/K] (symmetry no. = 2)
    Vibrational S           3.792 [cal/(mol K)]       15.867 [J/(mol K)]       0.00604328 [mEh/K]
  Total S                  50.449 [cal/(mol K)]      211.078 [J/(mol K)]       0.08039535 [mEh/K]
  Correction S              0.000 [cal/(mol K)]        0.000 [J/(mol K)]       0.00000000 [mEh/K]

  Constant volume heat capacity, Cv
    Electronic Cv           0.000 [cal/(mol K)]        0.000 [J/(mol K)]       0.00000000 [mEh/K]
    Translational Cv        2.981 [cal/(mol K)]       12.472 [J/(mol K)]       0.00475022 [mEh/K]
    Rotational Cv           1.987 [cal/(mol K)]        8.314 [J/(mol K)]       0.00316681 [mEh/K]
    Vibrational Cv          6.106 [cal/(mol K)]       25.548 [J/(mol K)]       0.00973059 [mEh/K]
  Total Cv                 11.074 [cal/(mol K)]       46.334 [J/(mol K)]       0.01764762 [mEh/K]
  Correction Cv             0.000 [cal/(mol K)]        0.000 [J/(mol K)]       0.00000000 [mEh/K]

  Constant pressure heat capacity, Cp
    Electronic Cp           0.000 [cal/(mol K)]        0.000 [J/(mol K)]       0.00000000 [mEh/K]
    Translational Cp        4.968 [cal/(mol K)]       20.786 [J/(mol K)]       0.00791703 [mEh/K]
    Rotational Cp           1.987 [cal/(mol K)]        8.314 [J/(mol K)]       0.00316681 [mEh/K]
    Vibrational Cp          6.106 [cal/(mol K)]       25.548 [J/(mol K)]       0.00973059 [mEh/K]
  Total Cp                 13.061 [cal/(mol K)]       54.648 [J/(mol K)]       0.02081443 [mEh/K]
  Correction Cp             0.000 [cal/(mol K)]        0.000 [J/(mol K)]       0.00000000 [mEh/K]

  ==> Thermochemistry Energy Analysis <==

  Raw electronic energy, E0
  Total E0, Electronic energy at well bottom at 0 [K]                  -77.31418710 [Eh]

  Zero-point energy, ZPE_vib = Sum_i nu_i / 2
    Electronic ZPE          0.000 [kcal/mol]        0.000 [kJ/mol]       0.00000000 [Eh]
    Translational ZPE       0.000 [kcal/mol]        0.000 [kJ/mol]       0.00000000 [Eh]
    Rotational ZPE          0.000 [kcal/mol]        0.000 [kJ/mol]       0.00000000 [Eh]
    Vibrational ZPE        17.746 [kcal/mol]       74.251 [kJ/mol]       0.02828058 [Eh]        6206.870 [cm^-1]
  Correction ZPE           17.746 [kcal/mol]       74.251 [kJ/mol]       0.02828058 [Eh]        6206.870 [cm^-1]
  Total ZPE, Electronic energy at 0 [K]                                -77.28590652 [Eh]

  Thermal Energy, E (includes ZPE)
    Electronic E            0.000 [kcal/mol]        0.000 [kJ/mol]       0.00000000 [Eh]
    Translational E         0.889 [kcal/mol]        3.718 [kJ/mol]       0.00141628 [Eh]
    Rotational E            0.592 [kcal/mol]        2.479 [kJ/mol]       0.00094418 [Eh]
    Vibrational E          18.494 [kcal/mol]       77.379 [kJ/mol]       0.02947216 [Eh]
  Correction E             19.975 [kcal/mol]       83.577 [kJ/mol]       0.03183262 [Eh]
  Total E, Electronic energy at  298.15 [K]                            -77.28235448 [Eh]

  Enthalpy, H_trans = E_trans + k_B * T
    Electronic H            0.000 [kcal/mol]        0.000 [kJ/mol]       0.00000000 [Eh]
    Translational H         1.481 [kcal/mol]        6.197 [kJ/mol]       0.00236046 [Eh]
    Rotational H            0.592 [kcal/mol]        2.479 [kJ/mol]       0.00094418 [Eh]
    Vibrational H          18.494 [kcal/mol]       77.379 [kJ/mol]       0.02947216 [Eh]
  Correction H             20.568 [kcal/mol]       86.055 [kJ/mol]       0.03277680 [Eh]
  Total H, Enthalpy at  298.15 [K]                                     -77.28141030 [Eh]

  Gibbs free energy, G = H - T * S
    Electronic G            0.000 [kcal/mol]        0.000 [kJ/mol]       0.00000000 [Eh]
    Translational G        -9.164 [kcal/mol]      -38.342 [kJ/mol]      -0.01460386 [Eh]
    Rotational G           -2.673 [kcal/mol]      -11.183 [kJ/mol]      -0.00425956 [Eh]
    Vibrational G          17.363 [kcal/mol]       72.649 [kJ/mol]       0.02767035 [Eh]
  Correction G              5.526 [kcal/mol]       23.123 [kJ/mol]       0.00880693 [Eh]
  Total G, Free enthalpy at  298.15 [K]                                -77.30538017 [Eh]

*** Psi4 exiting successfully. Buy a developer a beer!
