                               Psi4 1.3.2 release

  ==> Input File <==

--------------------------------------------------------------------------
set basis  6-31g
molecule {
0 1
   C       -0.61446        0.00000        0.00000
   C        0.61446        0.00000        0.00000
   H       -1.68923        0.00000        0.00000
   H        1.68923        0.00000        0.00000
}
energy('CCSD')
frequencies('CCSD')
--------------------------------------------------------------------------

    Molecular point group: d2h
  Charge       = 0
  Multiplicity = 1
  Basis Set: 6-31G
    Blend: 6-31G
  @RHF Final Energy:   -76.78946577190072
    Total Energy =                        -76.7894657719007228
      * MP2 total energy                      =  -76.979205148324226
      * CCSD total energy                     =  -76.993260858624296
    Molecular point group: d2h
  Basis Set: 6-31G
    Blend: 6-31G
  @RHF Final Energy:   -76.78946577190067
    Total Energy =                        -76.7894657719006659
      * MP2 total energy                      =  -76.979205148158186
      * CCSD total energy                     =  -76.993260857935624
  Basis Set: 6-31G
    Blend: 6-31G
  @RHF Final Energy:   -76.78946577190067
    Total Energy =                        -76.7894657719006659
      * MP2 total energy                      =  -76.979205148158186
      * CCSD total energy                     =  -76.993260858109977
  Basis Set: 6-31G
    Blend: 6-31G
  @RHF Final Energy:   -76.78934318726242
    Total Energy =                        -76.7893431872624177
      * MP2 total energy                      =  -76.979224247111020
      * CCSD total energy                     =  -76.993252595902433
  @RHF Final Energy:   -76.78958301888532
    Total Energy =                        -76.7895830188853239
      * MP2 total energy                      =  -76.979180968922108
      * CCSD total energy                     =  -76.993263956862876
  @RHF Final Energy:   -76.78933977289428
    Total Energy =                        -76.7893397728942944
      * MP2 total energy                      =  -76.979168796708350
      * CCSD total energy                     =  -76.993246891348292
  @RHF Final Energy:   -76.78958164517010
    Total Energy =                        -76.7895816451701023
      * MP2 total energy                      =  -76.979231499591620
      * CCSD total energy                     =  -76.993264912112352
  @RHF Final Energy:   -76.78946532912971
    Total Energy =                        -76.7894653291297118
      * MP2 total energy                      =  -76.979205047673119
      * CCSD total energy                     =  -76.993260758631067
  Basis Set: 6-31G
    Blend: 6-31G
  @RHF Final Energy:   -76.78946532912974
    Total Energy =                        -76.7894653291297402
      * MP2 total energy                      =  -76.979205047673304
      * CCSD total energy                     =  -76.993260758631251
  Basis Set: 6-31G
    Blend: 6-31G
  @RHF Final Energy:   -76.78946531177910
    Total Energy =                        -76.7894653117790966
      * MP2 total energy                      =  -76.979204871589090
      * CCSD total energy                     =  -76.993260606599392
  Basis Set: 6-31G
    Blend: 6-31G
  @RHF Final Energy:   -76.78946531177913
    Total Energy =                        -76.7894653117791250
      * MP2 total energy                      =  -76.979204871588990
      * CCSD total energy                     =  -76.993260606599307
    Molecular point group: c2v
  Charge       = 0
  Multiplicity = 1
  Basis Set: 6-31G
    Blend: 6-31G

    Orbital Energies [Eh]
    ---------------------

    Doubly Occupied:

       1A1   -11.254818     2A1   -11.251661     3A1    -1.023516
       4A1    -0.756086     5A1    -0.669528     1B1    -0.398651
       1B2    -0.398651

  @RHF Final Energy:   -76.78946029815691

   => Energetics <=

    Nuclear Repulsion Energy =             24.3232393838559098
    One-Electron Energy =                -150.7195777154702512
    Two-Electron Energy =                  49.6068780334574342
    Total Energy =                        -76.7894602981569108

  Dipole Moment: [D]
     X:     0.0043      Y:     0.0000      Z:     0.0000     Total:     0.0043

      * MP2 total energy                      =  -76.979199736016724
      * CCSD total energy                     =  -76.993255500094662
    Molecular point group: c2v

    Geometry (in Bohr), charge = 0, multiplicity = 1:

       Center              X                  Y                   Z
    ------------   -----------------  -----------------  -----------------
         C           -1.161445204175     0.000000000000     0.000000000000
         C            1.160877025923     0.000000000000     0.000000000000
         H           -3.188799462353     0.000000000000     0.000000000000
         H            3.195564663461     0.000000000000     0.000000000000

  -Total gradient:
     Atom            X                  Y                   Z
    ------   -----------------  -----------------  -----------------
       1       -0.004254595394     0.000000000000     0.000000000000
       2        0.001332032297     0.000000000000     0.000000000000
       3        0.000187799646     0.000000000000     0.000000000000
       4        0.002734763451     0.000000000000     0.000000000000

  Vibration                       6                   7                   8
  Freq [cm^-1]                 458.6015            458.6015            729.1749
  Irrep                                                                  B2u
  Reduced mass [u]              1.5641              1.5641              1.0848
  Force const [mDyne/A]         0.1938              0.1938              0.3398

  Vibration                       9                   10                  11
  Freq [cm^-1]                 729.1749           1981.7291           3365.5287
  Irrep                          B1u                  Ag                 B3u
  Reduced mass [u]              1.0848              3.9143              1.0848
  Force const [mDyne/A]         0.3398              9.0573              7.2396

  Vibration                       12
  Freq [cm^-1]                3465.2813
  Irrep                           Ag
  Reduced mass [u]              1.2194
  Force const [mDyne/A]         8.6270

  ==> Thermochemistry Components <==

  Entropy, S
    Electronic S            0.000 [cal/(mol K)]        0.000 [J/(mol K)]       0.00000000 [mEh/K] (multiplicity = 1)
    Translational S        35.704 [cal/(mol K)]      149.387 [J/(mol K)]       0.05689862 [mEh/K] (mol. weight = 26.0157 [u], P = 101325.00 [Pa])
    Rotational S           10.952 [cal/(mol K)]       45.824 [J/(mol K)]       0.01745345 [mEh/K] (symmetry no. = 2)
    Vibrational S           2.089 [cal/(mol K)]        8.738 [J/(mol K)]       0.00332829 [mEh/K]
  Total S                  48.745 [cal/(mol K)]      203.950 [J/(mol K)]       0.07768036 [mEh/K]
  Correction S              0.000 [cal/(mol K)]        0.000 [J/(mol K)]       0.00000000 [mEh/K]

  Constant volume heat capacity, Cv
    Electronic Cv           0.000 [cal/(mol K)]        0.000 [J/(mol K)]       0.00000000 [mEh/K]
    Translational Cv        2.981 [cal/(mol K)]       12.472 [J/(mol K)]       0.00475022 [mEh/K]
    Rotational Cv           1.987 [cal/(mol K)]        8.314 [J/(mol K)]       0.00316681 [mEh/K]
    Vibrational Cv          4.245 [cal/(mol K)]       17.763 [J/(mol K)]       0.00676549 [mEh/K]
  Total Cv                  9.213 [cal/(mol K)]       38.549 [J/(mol K)]       0.01468251 [mEh/K]
  Correction Cv             0.000 [cal/(mol K)]        0.000 [J/(mol K)]       0.00000000 [mEh/K]

  Constant pressure heat capacity, Cp
    Electronic Cp           0.000 [cal/(mol K)]        0.000 [J/(mol K)]       0.00000000 [mEh/K]
    Translational Cp        4.968 [cal/(mol K)]       20.786 [J/(mol K)]       0.00791703 [mEh/K]
    Rotational Cp           1.987 [cal/(mol K)]        8.314 [J/(mol K)]       0.00316681 [mEh/K]
    Vibrational Cp          4.245 [cal/(mol K)]       17.763 [J/(mol K)]       0.00676549 [mEh/K]
  Total Cp                 11.201 [cal/(mol K)]       46.863 [J/(mol K)]       0.01784932 [mEh/K]
  Correction Cp             0.000 [cal/(mol K)]        0.000 [J/(mol K)]       0.00000000 [mEh/K]

  ==> Thermochemistry Energy Analysis <==

  Raw electronic energy, E0
  Total E0, Electronic energy at well bottom at 0 [K]                  -76.99326086 [Eh]

  Zero-point energy, ZPE_vib = Sum_i nu_i / 2
    Electronic ZPE          0.000 [kcal/mol]        0.000 [kJ/mol]       0.00000000 [Eh]
    Translational ZPE       0.000 [kcal/mol]        0.000 [kJ/mol]       0.00000000 [Eh]
    Rotational ZPE          0.000 [kcal/mol]        0.000 [kJ/mol]       0.00000000 [Eh]
    Vibrational ZPE        15.994 [kcal/mol]       66.920 [kJ/mol]       0.02548835 [Eh]        5594.046 [cm^-1]
  Correction ZPE           15.994 [kcal/mol]       66.920 [kJ/mol]       0.02548835 [Eh]        5594.046 [cm^-1]
  Total ZPE, Electronic energy at 0 [K]                                -76.96777251 [Eh]

  Thermal Energy, E (includes ZPE)
    Electronic E            0.000 [kcal/mol]        0.000 [kJ/mol]       0.00000000 [Eh]
    Translational E         0.889 [kcal/mol]        3.718 [kJ/mol]       0.00141628 [Eh]
    Rotational E            0.592 [kcal/mol]        2.479 [kJ/mol]       0.00094418 [Eh]
    Vibrational E          16.444 [kcal/mol]       68.801 [kJ/mol]       0.02620509 [Eh]
  Correction E             17.925 [kcal/mol]       74.999 [kJ/mol]       0.02856555 [Eh]
  Total E, Electronic energy at  298.15 [K]                            -76.96469531 [Eh]

  Enthalpy, H_trans = E_trans + k_B * T
    Electronic H            0.000 [kcal/mol]        0.000 [kJ/mol]       0.00000000 [Eh]
    Translational H         1.481 [kcal/mol]        6.197 [kJ/mol]       0.00236046 [Eh]
    Rotational H            0.592 [kcal/mol]        2.479 [kJ/mol]       0.00094418 [Eh]
    Vibrational H          16.444 [kcal/mol]       68.801 [kJ/mol]       0.02620509 [Eh]
  Correction H             18.518 [kcal/mol]       77.478 [kJ/mol]       0.02950974 [Eh]
  Total H, Enthalpy at  298.15 [K]                                     -76.96375112 [Eh]

  Gibbs free energy, G = H - T * S
    Electronic G            0.000 [kcal/mol]        0.000 [kJ/mol]       0.00000000 [Eh]
    Translational G        -9.164 [kcal/mol]      -38.342 [kJ/mol]      -0.01460386 [Eh]
    Rotational G           -2.673 [kcal/mol]      -11.183 [kJ/mol]      -0.00425956 [Eh]
    Vibrational G          15.821 [kcal/mol]       66.196 [kJ/mol]       0.02521276 [Eh]
  Correction G              3.984 [kcal/mol]       16.670 [kJ/mol]       0.00634934 [Eh]
  Total G, Free enthalpy at  298.15 [K]                                -76.98691152 [Eh]

*** Psi4 exiting successfully. Buy a developer a beer!
