                               Psi4 1.3.2 release

  ==> Input File <==

--------------------------------------------------------------------------
set basis  cc-pVTZ
molecule {
0 1
   O        0.00000        0.00000        0.49152
   C        0.00000        0.00000       -0.65516
}
energy('B3LYP')
frequencies('B3LYP')
--------------------------------------------------------------------------

    Molecular point group: c2v
  Charge       = 0
  Multiplicity = 1
  Basis Set: CC-PVTZ
    Blend: CC-PVTZ
  Basis Set: (CC-PVTZ AUX)
    Blend: CC-PVTZ-JKFIT
  @DF-RKS Final Energy:  -113.35633071892491
    Total Energy =                       -113.3563307189249088
    Molecular point group: c2v
  Basis Set: CC-PVTZ
    Blend: CC-PVTZ
  Basis Set: (CC-PVTZ AUX)
    Blend: CC-PVTZ-JKFIT
  @DF-RKS Final Energy:  -113.35633071895036
    Total Energy =                       -113.3563307189503604
  Basis Set: CC-PVTZ
    Blend: CC-PVTZ
  Basis Set: (CC-PVTZ AUX)
    Blend: CC-PVTZ-JKFIT
  Basis Set: CC-PVTZ
    Blend: CC-PVTZ
  Basis Set: (CC-PVTZ AUX)
    Blend: CC-PVTZ-JKFIT
  @DF-RKS Final Energy:  -113.35633071895036
    Total Energy =                       -113.3563307189503604
  Basis Set: CC-PVTZ
  @DF-RKS Final Energy:  -113.35641618182214
    Total Energy =                       -113.3564161818221407
  @DF-RKS Final Energy:  -113.35624125473885
    Total Energy =                       -113.3562412547388476
  Basis Set: (CC-PVTZ AUX)
    Blend: CC-PVTZ-JKFIT
  Basis Set: CC-PVTZ
    Blend: CC-PVTZ
  Basis Set: (CC-PVTZ AUX)
    Blend: CC-PVTZ-JKFIT
  @DF-RKS Final Energy:  -113.35633068041605
    Total Energy =                       -113.3563306804160504
  Basis Set: CC-PVTZ
    Blend: CC-PVTZ
  Basis Set: (CC-PVTZ AUX)
    Blend: CC-PVTZ-JKFIT
    Molecular point group: cs
  Charge       = 0
  Multiplicity = 1
  Basis Set: CC-PVTZ
    Blend: CC-PVTZ
  Basis Set: (CC-PVTZ AUX)
    Blend: CC-PVTZ-JKFIT

    Orbital Energies [Eh]
    ---------------------

    Doubly Occupied:

       1Ap   -19.240125     2Ap   -10.301356     3Ap    -1.160423
       4Ap    -0.581783     5Ap    -0.475840     1App   -0.475840
       6Ap    -0.385413

  @DF-RKS Final Energy:  -113.35633068040669

   => Energetics <=

    Nuclear Repulsion Energy =             22.1513379928885605
    One-Electron Energy =                -197.7047689159528829
    Two-Electron Energy =                  73.4149939925100341
    DFT Exchange-Correlation Energy =     -11.2178937498523883
    Empirical Dispersion Energy =           0.0000000000000000
    VV10 Nonlocal Energy =                  0.0000000000000000
    Total Energy =                       -113.3563306804066855

  Dipole Moment: [D]
     X:     0.0000      Y:    -0.0000      Z:     0.0536     Total:     0.0536

    Molecular point group: cs

    Geometry (in Angstrom), charge = 0, multiplicity = 1:

       Center              X                  Y                   Z               Mass
    ------------   -----------------  -----------------  -----------------  -----------------
         O            0.000000000000    -0.000433142923     0.491523556581    15.994914619570
         C            0.000000000000     0.000577340340    -0.655156443419    12.000000000000

  Basis Set: CC-PVTZ
    Blend: CC-PVTZ
  Basis Set: (CC-PVTZ AUX)
    Blend: CC-PVTZ-JKFIT

  -Total Gradient:
     Atom            X                  Y                   Z
    ------   -----------------  -----------------  -----------------
       1        0.000000000000    -0.000040360023     0.045799899080
       2        0.000000000000     0.000040362989    -0.045803264261

  Vibration                       4                   5                   6
  Freq [cm^-1]                 285.4191            285.4191           2056.5908
  Irrep                           B1                  B2                  A1
  Reduced mass [u]             13.4388             13.4388             13.4388
  Force const [mDyne/A]         0.6450              0.6450             33.4892

  ==> Thermochemistry Components <==

  Entropy, S
    Electronic S            0.000 [cal/(mol K)]        0.000 [J/(mol K)]       0.00000000 [mEh/K] (multiplicity = 1)
    Translational S        35.923 [cal/(mol K)]      150.302 [J/(mol K)]       0.05724692 [mEh/K] (mol. weight = 27.9949 [u], P = 101325.00 [Pa])
    Rotational S           11.343 [cal/(mol K)]       47.458 [J/(mol K)]       0.01807582 [mEh/K] (symmetry no. = 1)
    Vibrational S           3.003 [cal/(mol K)]       12.565 [J/(mol K)]       0.00478560 [mEh/K]
  Total S                  50.269 [cal/(mol K)]      210.324 [J/(mol K)]       0.08010835 [mEh/K]
  Correction S              0.000 [cal/(mol K)]        0.000 [J/(mol K)]       0.00000000 [mEh/K]

  Constant volume heat capacity, Cv
    Electronic Cv           0.000 [cal/(mol K)]        0.000 [J/(mol K)]       0.00000000 [mEh/K]
    Translational Cv        2.981 [cal/(mol K)]       12.472 [J/(mol K)]       0.00475022 [mEh/K]
    Rotational Cv           1.987 [cal/(mol K)]        8.314 [J/(mol K)]       0.00316681 [mEh/K]
    Vibrational Cv          3.411 [cal/(mol K)]       14.272 [J/(mol K)]       0.00543589 [mEh/K]
  Total Cv                  8.379 [cal/(mol K)]       35.058 [J/(mol K)]       0.01335292 [mEh/K]
  Correction Cv             0.000 [cal/(mol K)]        0.000 [J/(mol K)]       0.00000000 [mEh/K]

  Constant pressure heat capacity, Cp
    Electronic Cp           0.000 [cal/(mol K)]        0.000 [J/(mol K)]       0.00000000 [mEh/K]
    Translational Cp        4.968 [cal/(mol K)]       20.786 [J/(mol K)]       0.00791703 [mEh/K]
    Rotational Cp           1.987 [cal/(mol K)]        8.314 [J/(mol K)]       0.00316681 [mEh/K]
    Vibrational Cp          3.411 [cal/(mol K)]       14.272 [J/(mol K)]       0.00543589 [mEh/K]
  Total Cp                 10.366 [cal/(mol K)]       43.373 [J/(mol K)]       0.01651973 [mEh/K]
  Correction Cp             0.000 [cal/(mol K)]        0.000 [J/(mol K)]       0.00000000 [mEh/K]

  ==> Thermochemistry Energy Analysis <==

  Raw electronic energy, E0
  Total E0, Electronic energy at well bottom at 0 [K]                 -113.35633072 [Eh]

  Zero-point energy, ZPE_vib = Sum_i nu_i / 2
    Electronic ZPE          0.000 [kcal/mol]        0.000 [kJ/mol]       0.00000000 [Eh]
    Translational ZPE       0.000 [kcal/mol]        0.000 [kJ/mol]       0.00000000 [Eh]
    Rotational ZPE          0.000 [kcal/mol]        0.000 [kJ/mol]       0.00000000 [Eh]
    Vibrational ZPE         3.756 [kcal/mol]       15.716 [kJ/mol]       0.00598572 [Eh]        1313.715 [cm^-1]
  Correction ZPE            3.756 [kcal/mol]       15.716 [kJ/mol]       0.00598572 [Eh]        1313.715 [cm^-1]
  Total ZPE, Electronic energy at 0 [K]                               -113.35034500 [Eh]

  Thermal Energy, E (includes ZPE)
    Electronic E            0.000 [kcal/mol]        0.000 [kJ/mol]       0.00000000 [Eh]
    Translational E         0.889 [kcal/mol]        3.718 [kJ/mol]       0.00141628 [Eh]
    Rotational E            0.592 [kcal/mol]        2.479 [kJ/mol]       0.00094418 [Eh]
    Vibrational E           4.307 [kcal/mol]       18.020 [kJ/mol]       0.00686359 [Eh]
  Correction E              5.788 [kcal/mol]       24.218 [kJ/mol]       0.00922405 [Eh]
  Total E, Electronic energy at  298.15 [K]                           -113.34710667 [Eh]

  Enthalpy, H_trans = E_trans + k_B * T
    Electronic H            0.000 [kcal/mol]        0.000 [kJ/mol]       0.00000000 [Eh]
    Translational H         1.481 [kcal/mol]        6.197 [kJ/mol]       0.00236046 [Eh]
    Rotational H            0.592 [kcal/mol]        2.479 [kJ/mol]       0.00094418 [Eh]
    Vibrational H           4.307 [kcal/mol]       18.020 [kJ/mol]       0.00686359 [Eh]
  Correction H              6.381 [kcal/mol]       26.697 [kJ/mol]       0.01016823 [Eh]
  Total H, Enthalpy at  298.15 [K]                                    -113.34616249 [Eh]

  Gibbs free energy, G = H - T * S
    Electronic G            0.000 [kcal/mol]        0.000 [kJ/mol]       0.00000000 [Eh]
    Translational G        -9.229 [kcal/mol]      -38.615 [kJ/mol]      -0.01470771 [Eh]
    Rotational G           -2.789 [kcal/mol]      -11.671 [kJ/mol]      -0.00444512 [Eh]
    Vibrational G           3.412 [kcal/mol]       14.274 [kJ/mol]       0.00543676 [Eh]
  Correction G             -8.607 [kcal/mol]      -36.012 [kJ/mol]      -0.01371607 [Eh]
  Total G, Free enthalpy at  298.15 [K]                               -113.37004679 [Eh]

*** Psi4 exiting successfully. Buy a developer a beer!
