                               Psi4 1.3.2 release

  ==> Input File <==

--------------------------------------------------------------------------
set basis  aug-cc-pVTZ
molecule {
0 1
   C       -1.22151       -0.69325        0.00000
   C       -1.21114        0.71122        0.00000
   C       -0.01037       -1.40452        0.00000
   C        0.01037        1.40452        0.00000
   C        1.21114       -0.71122        0.00000
   C        1.22151        0.69325        0.00000
   H       -2.17311       -1.23332        0.00000
   H       -2.15464        1.26533        0.00000
   H       -0.01848       -2.49865        0.00000
   H        0.01848        2.49865        0.00000
   H        2.15464       -1.26533        0.00000
   H        2.17311        1.23332        0.00000
}
energy('MP2')
frequencies('MP2')
--------------------------------------------------------------------------

    Molecular point group: c2h
  Charge       = 0
  Multiplicity = 1
  Basis Set: AUG-CC-PVTZ
    Blend: AUG-CC-PVTZ
  Basis Set: (AUG-CC-PVTZ AUX)
    Blend: AUG-CC-PVTZ-JKFIT
  @DF-RHF Final Energy:  -230.77765291134727
    Total Energy =                       -230.7776529113472748
  Basis Set: (AUG-CC-PVTZ AUX)
    Blend: AUG-CC-PVTZ-RI
	 Reference Energy          =    -230.7776529113472748 [Eh]
	 Singles Energy            =      -0.0000000000000000 [Eh]
	 Same-Spin Energy          =      -0.2555324252646982 [Eh]
	 Opposite-Spin Energy      =      -0.8196053505691613 [Eh]
	 Correlation Energy        =      -1.0751377758338596 [Eh]
	 Total Energy              =    -231.8527906871811410 [Eh]
	 SCS Total Energy          =    -231.8463568071184966 [Eh]
    Molecular point group: c2h
  Basis Set: AUG-CC-PVTZ
    Blend: AUG-CC-PVTZ
  Basis Set: (AUG-CC-PVTZ AUX)
    Blend: AUG-CC-PVTZ-JKFIT
  @DF-RHF Final Energy:  -230.77765290633931
    Total Energy =                       -230.7776529063393127
  Basis Set: (AUG-CC-PVTZ AUX)
  @DF-RHF Final Energy:  -230.77765291207442
    Total Energy =                       -230.7776529120744158
  @DF-RHF Final Energy:  -230.77763870267722
    Total Energy =                       -230.7776387026772227
  @DF-RHF Final Energy:  -230.77766543815028
    Total Energy =                       -230.7776654381502794
  @DF-RHF Final Energy:  -230.77764545921892
    Total Energy =                       -230.7776454592189452
  @DF-RHF Final Energy:  -230.77765832328998
    Total Energy =                       -230.7776583232899839
  @DF-RHF Final Energy:  -230.77763854462503
    Total Energy =                       -230.7776385446250629
  @DF-RHF Final Energy:  -230.77766544211738
    Total Energy =                       -230.7776654421173816
  @DF-RHF Final Energy:  -230.77765822027706
    Total Energy =                       -230.7776582202770328
  @DF-RHF Final Energy:  -230.77764571788097
    Total Energy =                       -230.7776457178809437
  @DF-RHF Final Energy:  -230.77765171134689
    Total Energy =                       -230.7776517113468913
  @DF-RHF Final Energy:  -230.77765196088262
    Total Energy =                       -230.7776519608826220
  @DF-RHF Final Energy:  -230.77763718785454
    Total Energy =                       -230.7776371878545660
  @DF-RHF Final Energy:  -230.77766705403886
    Total Energy =                       -230.7776670540388295
  @DF-RHF Final Energy:  -230.77755281589970
    Total Energy =                       -230.7775528158996963
  @DF-RHF Final Energy:  -230.77774559986440
    Total Energy =                       -230.7777455998643745
  @DF-RHF Final Energy:  -230.77760672041353
    Total Energy =                       -230.7776067204135302
  @DF-RHF Final Energy:  -230.77769613434219
    Total Energy =                       -230.7776961343421931
  @DF-RHF Final Energy:  -230.77755096967374
    Total Energy =                       -230.7775509696737117
  @DF-RHF Final Energy:  -230.77775479816268
    Total Energy =                       -230.7777547981626753
  @DF-RHF Final Energy:  -230.77765252361331
    Total Energy =                       -230.7776525236133125
  @DF-RHF Final Energy:  -230.77765245262731
    Total Energy =                       -230.7776524526273079
  @DF-RHF Final Energy:  -230.77765243624242
    Total Energy =                       -230.7776524362424198
  @DF-RHF Final Energy:  -230.77765238292102
    Total Energy =                       -230.7776523829210191
  @DF-RHF Final Energy:  -230.77765265576841
    Total Energy =                       -230.7776526557684065
  @DF-RHF Final Energy:  -230.77765265153894
    Total Energy =                       -230.7776526515389151
  @DF-RHF Final Energy:  -230.77765257530251
    Total Energy =                       -230.7776525753025112
  @DF-RHF Final Energy:  -230.77765242518336
    Total Energy =                       -230.7776524251833621
  @DF-RHF Final Energy:  -230.77765242435316
    Total Energy =                       -230.7776524243531640
  @DF-RHF Final Energy:  -230.77765185953911
    Total Energy =                       -230.7776518595391053
  @DF-RHF Final Energy:  -230.77765204020221
    Total Energy =                       -230.7776520402022129
  @DF-RHF Final Energy:  -230.77765173765172
    Total Energy =                       -230.7776517376517518
  @DF-RHF Final Energy:  -230.77765194459332
    Total Energy =                       -230.7776519445933445
  @DF-RHF Final Energy:  -230.77765053145558
    Total Energy =                       -230.7776505314556061
  @DF-RHF Final Energy:  -230.77765015107474
    Total Energy =                       -230.7776501510747380
  @DF-RHF Final Energy:  -230.77764987425650
    Total Energy =                       -230.7776498742564968
  @DF-RHF Final Energy:  -230.77765077146560
    Total Energy =                       -230.7776507714655736
  @DF-RHF Final Energy:  -230.77765076785005
    Total Energy =                       -230.7776507678500479
    Molecular point group: cs
  Charge       = 0
  Multiplicity = 1
  Basis Set: AUG-CC-PVTZ
    Blend: AUG-CC-PVTZ
  Basis Set: (AUG-CC-PVTZ AUX)
    Blend: AUG-CC-PVTZ-JKFIT

    Orbital Energies [Eh]
    ---------------------

    Doubly Occupied:

       1Ap   -11.241870     2Ap   -11.241320     3Ap   -11.241300
       4Ap   -11.240133     5Ap   -11.240116     6Ap   -11.239536
       7Ap    -1.144107     8Ap    -1.010738     9Ap    -1.010731
      10Ap    -0.820709    11Ap    -0.820696    12Ap    -0.703501
      13Ap    -0.642231    14Ap    -0.615533    15Ap    -0.584836
      16Ap    -0.584833     1App   -0.498495    17Ap    -0.493650
      18Ap    -0.493621     2App   -0.335431     3App   -0.335420

  @DF-RHF Final Energy:  -230.77764988095038

   => Energetics <=

    Nuclear Repulsion Energy =            202.0133184684007119
    One-Electron Energy =                -710.5043265256267659
    Two-Electron Energy =                 277.7133581762756762
    Total Energy =                       -230.7776498809503778

  Dipole Moment: [D]
     X:    -0.0010      Y:    -0.0017      Z:     0.0000     Total:     0.0020

  Basis Set: (AUG-CC-PVTZ AUX)
    Blend: AUG-CC-PVTZ-RI
    Molecular point group: cs

    Geometry (in Angstrom), charge = 0, multiplicity = 1:

       Center              X                  Y                   Z               Mass
    ------------   -----------------  -----------------  -----------------  -----------------
         C           -1.221510000000    -0.693250000000     0.000000000000    12.000000000000
         C           -1.211140000000     0.711220000000     0.000000000000    12.000000000000
         C           -0.010370000000    -1.404520000000     0.000000000000    12.000000000000
         C            0.010370000000     1.404520000000     0.000000000000    12.000000000000
         C            1.211140000000    -0.711220000000     0.000000000000    12.000000000000
         C            1.221510000000     0.693250000000     0.000000000000    12.000000000000
         H           -2.173110000000    -1.233320000000     0.000000000000     1.007825032230
         H           -2.154640000000     1.264012202829     0.000000000000     1.007825032230
         H           -0.018480000000    -2.497332202829     0.000000000000     1.007825032230
         H            0.018480000000     2.499967797171     0.000000000000     1.007825032230
         H            2.154640000000    -1.266647797171     0.000000000000     1.007825032230
         H            2.173110000000     1.233320000000     0.000000000000     1.007825032230

  Basis Set: AUG-CC-PVTZ
    Blend: AUG-CC-PVTZ
  Basis Set: (AUG-CC-PVTZ AUX)
    Blend: AUG-CC-PVTZ-JKFIT
  Basis Set: (AUG-CC-PVTZ AUX)
    Blend: AUG-CC-PVTZ-JKFIT
	 Reference Energy          =    -230.7776498809503778 [Eh]
	 Singles Energy            =      -0.0000000000000000 [Eh]
	 Same-Spin Energy          =      -0.2555324623374020 [Eh]
	 Opposite-Spin Energy      =      -0.8196055343219737 [Eh]
	 Correlation Energy        =      -1.0751379966593757 [Eh]
	 Total Energy              =    -231.8527878776097566 [Eh]

	 ================> DF-SCS-MP2 Energies <==================
	-----------------------------------------------------------
	 SCS Same-Spin Scale       =       0.3333333333333333 [-]
	 SCS Opposite-Spin Scale   =       1.2000000000000000 [-]
	 SCS Same-Spin Energy      =      -0.0851774874458007 [Eh]
	 SCS Opposite-Spin Energy  =      -0.9835266411863683 [Eh]
	 SCS Correlation Energy    =      -1.0687041286321690 [Eh]
	 SCS Total Energy          =    -231.8463540095825408 [Eh]
	-----------------------------------------------------------

  -Total Gradient:
     Atom            X                  Y                   Z
    ------   -----------------  -----------------  -----------------
       1       -0.004337006167    -0.002387306875     0.000000000000
       2       -0.004462715222     0.002720468197     0.000000000000
       3        0.000003726120    -0.005697501524     0.000000000000
       4        0.000062520564     0.004134834346     0.000000000000
       5        0.003966575640    -0.002155310675     0.000000000000
       6        0.004164118842     0.002375569284     0.000000000000
       7       -0.009123868139    -0.005185550047     0.000000000000
       8       -0.008771689953     0.005010312121     0.000000000000
       9       -0.000080576963    -0.009676803020     0.000000000000
      10        0.000079369137     0.011316513319     0.000000000000
      11        0.009348382973    -0.005643573770     0.000000000000
      12        0.009151163166     0.005188348645     0.000000000000

  Vibration                       1                   8                   9
  Freq [cm^-1]                434.4674i            429.8578            429.9130
  Irrep                           Bg                  Au                  Au
  Reduced mass [u]              2.5769              3.0187              3.0189
  Force const [mDyne/A]        -0.2866              0.3286              0.3287

  Vibration                       10                  11                  12
  Freq [cm^-1]                 600.6639            600.6939            786.6437
  Irrep                           Ag                  Ag                  Au
  Reduced mass [u]              6.2282              6.2279              1.0848
  Force const [mDyne/A]         1.3240              1.3240              0.3955

  Vibration                       13                  14                  15
  Freq [cm^-1]                 838.3330            925.1302            925.1632
  Irrep                           Bg                  Bg                  Bg
  Reduced mass [u]              1.4545              1.2479              1.2479
  Force const [mDyne/A]         0.6023              0.6292              0.6293

  Vibration                       16                  17                  18
  Freq [cm^-1]                 979.7669           1011.4669           1011.5132
  Irrep                           Ag                  Au                  Au
  Reduced mass [u]              6.0425              1.3436              1.3435
  Force const [mDyne/A]         3.4175              0.8099              0.8099

  Vibration                       19                  20                  21
  Freq [cm^-1]                1019.4881           1049.4560           1049.9683
  Irrep                           Bu                  Bu                  Bu
  Reduced mass [u]              6.5422              1.8620              1.8641
  Force const [mDyne/A]         4.0062              1.2083              1.2108

  Vibration                       22                  23                  24
  Freq [cm^-1]                1171.6003           1189.6927           1189.8198
  Irrep                           Bu                  Ag                  Ag
  Reduced mass [u]              1.0767              1.1617              1.1619
  Force const [mDyne/A]         0.8707              0.9688              0.9692

  Vibration                       25                  26                  27
  Freq [cm^-1]                1243.1118           1399.0356           1482.7202
  Irrep                           Ag                  Bu                  Bu
  Reduced mass [u]              1.2479              6.8132              1.8234
  Force const [mDyne/A]         1.1361              7.8570              2.3618

  Vibration                       28                  29                  30
  Freq [cm^-1]                1483.0531           1577.0309           1577.1651
  Irrep                           Bu                  Ag                  Ag
  Reduced mass [u]              1.8247              4.7559              4.7544
  Force const [mDyne/A]         2.3646              6.9689              6.9679

  Vibration                       31                  32                  33
  Freq [cm^-1]                3019.5938           3056.1812           3056.2938
  Irrep                           Bu                  Ag                  Ag
  Reduced mass [u]              1.0837              1.0875              1.0875
  Force const [mDyne/A]         5.8220              5.9844              5.9849

  Vibration                       34                  35                  36
  Freq [cm^-1]                3083.8580           3084.0658           3104.2817
  Irrep                           Bu                  Bu                  Ag
  Reduced mass [u]              1.0961              1.0959              1.0988
  Force const [mDyne/A]         6.1416              6.1417              6.2387

  ==> Thermochemistry Components <==

  Entropy, S
    Electronic S            0.000 [cal/(mol K)]        0.000 [J/(mol K)]       0.00000000 [mEh/K] (multiplicity = 1)
    Translational S        38.979 [cal/(mol K)]      163.089 [J/(mol K)]       0.06211726 [mEh/K] (mol. weight = 78.0470 [u], P = 101325.00 [Pa])
    Rotational S           24.318 [cal/(mol K)]      101.746 [J/(mol K)]       0.03875307 [mEh/K] (symmetry no. = 2)
    Vibrational S           4.012 [cal/(mol K)]       16.785 [J/(mol K)]       0.00639303 [mEh/K]
  Total S                  67.309 [cal/(mol K)]      281.620 [J/(mol K)]       0.10726336 [mEh/K]
  Correction S              0.000 [cal/(mol K)]        0.000 [J/(mol K)]       0.00000000 [mEh/K]

  Constant volume heat capacity, Cv
    Electronic Cv           0.000 [cal/(mol K)]        0.000 [J/(mol K)]       0.00000000 [mEh/K]
    Translational Cv        2.981 [cal/(mol K)]       12.472 [J/(mol K)]       0.00475022 [mEh/K]
    Rotational Cv           2.981 [cal/(mol K)]       12.472 [J/(mol K)]       0.00475022 [mEh/K]
    Vibrational Cv         10.411 [cal/(mol K)]       43.558 [J/(mol K)]       0.01659027 [mEh/K]
  Total Cv                 16.372 [cal/(mol K)]       68.501 [J/(mol K)]       0.02609071 [mEh/K]
  Correction Cv             0.000 [cal/(mol K)]        0.000 [J/(mol K)]       0.00000000 [mEh/K]

  Constant pressure heat capacity, Cp
    Electronic Cp           0.000 [cal/(mol K)]        0.000 [J/(mol K)]       0.00000000 [mEh/K]
    Translational Cp        4.968 [cal/(mol K)]       20.786 [J/(mol K)]       0.00791703 [mEh/K]
    Rotational Cp           2.981 [cal/(mol K)]       12.472 [J/(mol K)]       0.00475022 [mEh/K]
    Vibrational Cp         10.411 [cal/(mol K)]       43.558 [J/(mol K)]       0.01659027 [mEh/K]
  Total Cp                 18.359 [cal/(mol K)]       76.816 [J/(mol K)]       0.02925752 [mEh/K]
  Correction Cp             0.000 [cal/(mol K)]        0.000 [J/(mol K)]       0.00000000 [mEh/K]

  ==> Thermochemistry Energy Analysis <==

  Raw electronic energy, E0
  Total E0, Electronic energy at well bottom at 0 [K]                 -231.85279070 [Eh]

  Zero-point energy, ZPE_vib = Sum_i nu_i / 2
    Electronic ZPE          0.000 [kcal/mol]        0.000 [kJ/mol]       0.00000000 [Eh]
    Translational ZPE       0.000 [kcal/mol]        0.000 [kJ/mol]       0.00000000 [Eh]
    Rotational ZPE          0.000 [kcal/mol]        0.000 [kJ/mol]       0.00000000 [Eh]
    Vibrational ZPE        60.579 [kcal/mol]      253.462 [kJ/mol]       0.09653863 [Eh]       21187.781 [cm^-1]
  Correction ZPE           60.579 [kcal/mol]      253.462 [kJ/mol]       0.09653863 [Eh]       21187.781 [cm^-1]
  Total ZPE, Electronic energy at 0 [K]                               -231.75625207 [Eh]

  Thermal Energy, E (includes ZPE)
    Electronic E            0.000 [kcal/mol]        0.000 [kJ/mol]       0.00000000 [Eh]
    Translational E         0.889 [kcal/mol]        3.718 [kJ/mol]       0.00141628 [Eh]
    Rotational E            0.889 [kcal/mol]        3.718 [kJ/mol]       0.00141628 [Eh]
    Vibrational E          61.475 [kcal/mol]      257.213 [kJ/mol]       0.09796733 [Eh]
  Correction E             63.253 [kcal/mol]      264.650 [kJ/mol]       0.10079988 [Eh]
  Total E, Electronic energy at  298.15 [K]                           -231.75199082 [Eh]

  Enthalpy, H_trans = E_trans + k_B * T
    Electronic H            0.000 [kcal/mol]        0.000 [kJ/mol]       0.00000000 [Eh]
    Translational H         1.481 [kcal/mol]        6.197 [kJ/mol]       0.00236046 [Eh]
    Rotational H            0.889 [kcal/mol]        3.718 [kJ/mol]       0.00141628 [Eh]
    Vibrational H          61.475 [kcal/mol]      257.213 [kJ/mol]       0.09796733 [Eh]
  Correction H             63.845 [kcal/mol]      267.129 [kJ/mol]       0.10174407 [Eh]
  Total H, Enthalpy at  298.15 [K]                                    -231.75104664 [Eh]

  Gibbs free energy, G = H - T * S
    Electronic G            0.000 [kcal/mol]        0.000 [kJ/mol]       0.00000000 [Eh]
    Translational G       -10.140 [kcal/mol]      -42.428 [kJ/mol]      -0.01615980 [Eh]
    Rotational G           -6.362 [kcal/mol]      -26.617 [kJ/mol]      -0.01013795 [Eh]
    Vibrational G          60.279 [kcal/mol]      252.209 [kJ/mol]       0.09606125 [Eh]
  Correction G             43.777 [kcal/mol]      183.164 [kJ/mol]       0.06976350 [Eh]
  Total G, Free enthalpy at  298.15 [K]                               -231.78302721 [Eh]

*** Psi4 exiting successfully. Buy a developer a beer!
