                               Psi4 1.3.2 release

  ==> Input File <==

--------------------------------------------------------------------------
set basis  aug-cc-pVDZ
molecule {
0 1
   O        0.00000        0.00000       -0.06797
   H        0.74903        0.00000        0.53936
   H       -0.74903        0.00000        0.53936
}
energy('MP2')
frequencies('MP2')

--------------------------------------------------------------------------

    Molecular point group: c2v
  Charge       = 0
  Multiplicity = 1
  Basis Set: AUG-CC-PVDZ
    Blend: AUG-CC-PVDZ
  Basis Set: (AUG-CC-PVDZ AUX)
    Blend: AUG-CC-PVDZ-JKFIT
  @DF-RHF Final Energy:   -76.04063731614366
    Total Energy =                        -76.0406373161436591
  Basis Set: (AUG-CC-PVDZ AUX)
    Blend: AUG-CC-PVDZ-RI
	 Reference Energy          =     -76.0406373161436591 [Eh]
	 Singles Energy            =      -0.0000000000000000 [Eh]
	 Same-Spin Energy          =      -0.0569191081581462 [Eh]
	 Opposite-Spin Energy      =      -0.1656883480606183 [Eh]
	 Correlation Energy        =      -0.2226074562187645 [Eh]
	 Total Energy              =     -76.2632447723624267 [Eh]
	 SCS Total Energy          =     -76.2584363698691163 [Eh]
    Molecular point group: c2v
  Basis Set: AUG-CC-PVDZ
    Blend: AUG-CC-PVDZ
  Basis Set: (AUG-CC-PVDZ AUX)
    Blend: AUG-CC-PVDZ-JKFIT
  @DF-RHF Final Energy:   -76.04063731614379
    Total Energy =                        -76.0406373161437870
  Basis Set: (AUG-CC-PVDZ AUX)
  @DF-RHF Final Energy:   -76.04063731614369
    Total Energy =                        -76.0406373161436875
  @DF-RHF Final Energy:   -76.04050355894901
    Total Energy =                        -76.0405035589490126
  @DF-RHF Final Energy:   -76.04076398342870
    Total Energy =                        -76.0407639834287039
  @DF-RHF Final Energy:   -76.04072108501953
    Total Energy =                        -76.0407210850195270
  @DF-RHF Final Energy:   -76.04054335630103
    Total Energy =                        -76.0405433563010149
    Molecular point group: cs
  Charge       = 0
  Multiplicity = 1
  Basis Set: AUG-CC-PVDZ
    Blend: AUG-CC-PVDZ
  Basis Set: (AUG-CC-PVDZ AUX)
    Blend: AUG-CC-PVDZ-JKFIT

    Orbital Energies [Eh]
    ---------------------

    Doubly Occupied:

       1Ap   -20.579603     2Ap    -1.354881     3Ap    -0.710332
       4Ap    -0.589395     1App   -0.509597

  @DF-RHF Final Energy:   -76.04062999141946

   => Energetics <=

    Nuclear Repulsion Energy =              9.1334682877742281
    One-Electron Energy =                -122.8605792860184920
    Two-Electron Energy =                  37.6864810068247920
    Total Energy =                        -76.0406299914194648

  Dipole Moment: [D]
     X:     0.0034      Y:     0.0000      Z:     2.0461     Total:     2.0461

  Basis Set: (AUG-CC-PVDZ AUX)
    Blend: AUG-CC-PVDZ-RI
    Molecular point group: cs

    Geometry (in Angstrom), charge = 0, multiplicity = 1:

       Center              X                  Y                   Z               Mass
    ------------   -----------------  -----------------  -----------------  -----------------
         O           -0.000175859669     0.000000000000    -0.067969259994    15.994914619570
         H            0.750425510279     0.000000000000     0.540492250436     1.007825032230
         H           -0.747634489721     0.000000000000     0.538229229576     1.007825032230

  Basis Set: AUG-CC-PVDZ
    Blend: AUG-CC-PVDZ
  Basis Set: (AUG-CC-PVDZ AUX)
    Blend: AUG-CC-PVDZ-JKFIT
  Basis Set: (AUG-CC-PVDZ AUX)
    Blend: AUG-CC-PVDZ-JKFIT
	 Reference Energy          =     -76.0406299914194648 [Eh]
	 Singles Energy            =      -0.0000000000000000 [Eh]
	 Same-Spin Energy          =      -0.0569190548645284 [Eh]
	 Opposite-Spin Energy      =      -0.1656883479073685 [Eh]
	 Correlation Energy        =      -0.2226074027718968 [Eh]
	 Total Energy              =     -76.2632373941913642 [Eh]

	 ================> DF-SCS-MP2 Energies <==================
	-----------------------------------------------------------
	 SCS Same-Spin Scale       =       0.3333333333333333 [-]
	 SCS Opposite-Spin Scale   =       1.2000000000000000 [-]
	 SCS Same-Spin Energy      =      -0.0189730182881761 [Eh]
	 SCS Opposite-Spin Energy  =      -0.1988260174888422 [Eh]
	 SCS Correlation Energy    =      -0.2177990357770183 [Eh]
	 SCS Total Energy          =     -76.2584290271964846 [Eh]
	-----------------------------------------------------------

  -Total Gradient:
     Atom            X                  Y                   Z
    ------   -----------------  -----------------  -----------------
       1       -0.003144624769     0.000000000000    -0.002036656543
       2       -0.002131643020     0.000000000000     0.002285462161
       3        0.005276267789     0.000000000000    -0.000248805618

  Vibration                       7                   8                   9
  Freq [cm^-1]                1638.5006           3829.8850           3949.3823
  Irrep                           A1                  A1                  B1
  Reduced mass [u]              1.0812              1.0465              1.0793
  Force const [mDyne/A]         1.7102              9.0443              9.9184

  ==> Thermochemistry Components <==

  Entropy, S
    Electronic S            0.000 [cal/(mol K)]        0.000 [J/(mol K)]       0.00000000 [mEh/K] (multiplicity = 1)
    Translational S        34.608 [cal/(mol K)]      144.801 [J/(mol K)]       0.05515177 [mEh/K] (mol. weight = 18.0106 [u], P = 101325.00 [Pa])
    Rotational S           10.508 [cal/(mol K)]       43.968 [J/(mol K)]       0.01674635 [mEh/K] (symmetry no. = 2)
    Vibrational S           0.007 [cal/(mol K)]        0.027 [J/(mol K)]       0.00001039 [mEh/K]
  Total S                  45.123 [cal/(mol K)]      188.796 [J/(mol K)]       0.07190852 [mEh/K]
  Correction S              0.000 [cal/(mol K)]        0.000 [J/(mol K)]       0.00000000 [mEh/K]

  Constant volume heat capacity, Cv
    Electronic Cv           0.000 [cal/(mol K)]        0.000 [J/(mol K)]       0.00000000 [mEh/K]
    Translational Cv        2.981 [cal/(mol K)]       12.472 [J/(mol K)]       0.00475022 [mEh/K]
    Rotational Cv           2.981 [cal/(mol K)]       12.472 [J/(mol K)]       0.00475022 [mEh/K]
    Vibrational Cv          0.046 [cal/(mol K)]        0.192 [J/(mol K)]       0.00007297 [mEh/K]
  Total Cv                  6.007 [cal/(mol K)]       25.135 [J/(mol K)]       0.00957340 [mEh/K]
  Correction Cv             0.000 [cal/(mol K)]        0.000 [J/(mol K)]       0.00000000 [mEh/K]

  Constant pressure heat capacity, Cp
    Electronic Cp           0.000 [cal/(mol K)]        0.000 [J/(mol K)]       0.00000000 [mEh/K]
    Translational Cp        4.968 [cal/(mol K)]       20.786 [J/(mol K)]       0.00791703 [mEh/K]
    Rotational Cp           2.981 [cal/(mol K)]       12.472 [J/(mol K)]       0.00475022 [mEh/K]
    Vibrational Cp          0.046 [cal/(mol K)]        0.192 [J/(mol K)]       0.00007297 [mEh/K]
  Total Cp                  7.995 [cal/(mol K)]       33.449 [J/(mol K)]       0.01274021 [mEh/K]
  Correction Cp             0.000 [cal/(mol K)]        0.000 [J/(mol K)]       0.00000000 [mEh/K]

  ==> Thermochemistry Energy Analysis <==

  Raw electronic energy, E0
  Total E0, Electronic energy at well bottom at 0 [K]                  -76.26324477 [Eh]

  Zero-point energy, ZPE_vib = Sum_i nu_i / 2
    Electronic ZPE          0.000 [kcal/mol]        0.000 [kJ/mol]       0.00000000 [Eh]
    Translational ZPE       0.000 [kcal/mol]        0.000 [kJ/mol]       0.00000000 [Eh]
    Rotational ZPE          0.000 [kcal/mol]        0.000 [kJ/mol]       0.00000000 [Eh]
    Vibrational ZPE        13.463 [kcal/mol]       56.331 [kJ/mol]       0.02145525 [Eh]        4708.884 [cm^-1]
  Correction ZPE           13.463 [kcal/mol]       56.331 [kJ/mol]       0.02145525 [Eh]        4708.884 [cm^-1]
  Total ZPE, Electronic energy at 0 [K]                                -76.24178952 [Eh]

  Thermal Energy, E (includes ZPE)
    Electronic E            0.000 [kcal/mol]        0.000 [kJ/mol]       0.00000000 [Eh]
    Translational E         0.889 [kcal/mol]        3.718 [kJ/mol]       0.00141628 [Eh]
    Rotational E            0.889 [kcal/mol]        3.718 [kJ/mol]       0.00141628 [Eh]
    Vibrational E          13.465 [kcal/mol]       56.338 [kJ/mol]       0.02145800 [Eh]
  Correction E             15.243 [kcal/mol]       63.775 [kJ/mol]       0.02429056 [Eh]
  Total E, Electronic energy at  298.15 [K]                            -76.23895421 [Eh]

  Enthalpy, H_trans = E_trans + k_B * T
    Electronic H            0.000 [kcal/mol]        0.000 [kJ/mol]       0.00000000 [Eh]
    Translational H         1.481 [kcal/mol]        6.197 [kJ/mol]       0.00236046 [Eh]
    Rotational H            0.889 [kcal/mol]        3.718 [kJ/mol]       0.00141628 [Eh]
    Vibrational H          13.465 [kcal/mol]       56.338 [kJ/mol]       0.02145800 [Eh]
  Correction H             15.835 [kcal/mol]       66.254 [kJ/mol]       0.02523474 [Eh]
  Total H, Enthalpy at  298.15 [K]                                     -76.23801003 [Eh]

  Gibbs free energy, G = H - T * S
    Electronic G            0.000 [kcal/mol]        0.000 [kJ/mol]       0.00000000 [Eh]
    Translational G        -8.837 [kcal/mol]      -36.975 [kJ/mol]      -0.01408304 [Eh]
    Rotational G           -2.244 [kcal/mol]       -9.390 [kJ/mol]      -0.00357665 [Eh]
    Vibrational G          13.463 [kcal/mol]       56.330 [kJ/mol]       0.02145491 [Eh]
  Correction G              2.382 [kcal/mol]        9.964 [kJ/mol]       0.00379522 [Eh]
  Total G, Free enthalpy at  298.15 [K]                                -76.25944955 [Eh]

*** Psi4 exiting successfully. Buy a developer a beer!
