                               Psi4 1.3.2 release

  ==> Input File <==

--------------------------------------------------------------------------
set basis  6-311++g**
molecule {
0 1
   C       -0.61446        0.00000        0.00000
   C        0.61446        0.00000        0.00000
   H       -1.68923        0.00000        0.00000
   H        1.68923        0.00000        0.00000
}
energy('MP2')
frequencies('MP2')
--------------------------------------------------------------------------

    Molecular point group: d2h
  Charge       = 0
  Multiplicity = 1
  Basis Set: 6-311++G**
    Blend: 6-311++G**
  Basis Set: (6-311++G** AUX)
    Blend: AUG-CC-PVTZ-JKFIT
  @DF-RHF Final Energy:   -76.83790701281687
    Total Energy =                        -76.8379070128168706
  Basis Set: (6-311++G** AUX)
    Blend: AUG-CC-PVTZ-RI
	 Reference Energy          =     -76.8379070128168706 [Eh]
	 Singles Energy            =      -0.0000000000000000 [Eh]
	 Same-Spin Energy          =      -0.0700114583327305 [Eh]
	 Opposite-Spin Energy      =      -0.2421652512867432 [Eh]
	 Correlation Energy        =      -0.3121767096194737 [Eh]
	 Total Energy              =     -77.1500837224363494 [Eh]
	 SCS Total Energy          =     -77.1518424671385361 [Eh]
    Molecular point group: d2h
  Basis Set: 6-311++G**
    Blend: 6-311++G**
  Basis Set: (6-311++G** AUX)
    Blend: AUG-CC-PVTZ-JKFIT
  @DF-RHF Final Energy:   -76.83790701281696
    Total Energy =                        -76.8379070128169417
  Basis Set: (6-311++G** AUX)
  @DF-RHF Final Energy:   -76.83790701281696
    Total Energy =                        -76.8379070128169417
  @DF-RHF Final Energy:   -76.83773748787291
    Total Energy =                        -76.8377374878729142
  @DF-RHF Final Energy:   -76.83807150139506
    Total Energy =                        -76.8380715013950635
  @DF-RHF Final Energy:   -76.83779968796146
    Total Energy =                        -76.8377996879614784
  @DF-RHF Final Energy:   -76.83800433127911
    Total Energy =                        -76.8380043312791088
  @DF-RHF Final Energy:   -76.83790666008028
    Total Energy =                        -76.8379066600802787
  @DF-RHF Final Energy:   -76.83790666007214
    Total Energy =                        -76.8379066600721217
  @DF-RHF Final Energy:   -76.83790658885223
    Total Energy =                        -76.8379065888522348
  @DF-RHF Final Energy:   -76.83790658891397
    Total Energy =                        -76.8379065889139667
    Molecular point group: c2v
  Charge       = 0
  Multiplicity = 1
  Basis Set: 6-311++G**
    Blend: 6-311++G**
  Basis Set: (6-311++G** AUX)
    Blend: AUG-CC-PVTZ-JKFIT

    Orbital Energies [Eh]
    ---------------------

    Doubly Occupied:

       1A1   -11.254434     2A1   -11.251168     3A1    -1.025188
       4A1    -0.767832     5A1    -0.678492     1B1    -0.405957
       1B2    -0.405957

  @DF-RHF Final Energy:   -76.83790159091001

   => Energetics <=

    Nuclear Repulsion Energy =             24.3232393838559098
    One-Electron Energy =                -150.7442267072242146
    Two-Electron Energy =                  49.5830857324582865
    Total Energy =                        -76.8379015909100218

  Dipole Moment: [D]
     X:     0.0045      Y:     0.0000      Z:     0.0000     Total:     0.0045

  Basis Set: (6-311++G** AUX)
    Blend: AUG-CC-PVTZ-RI
    Molecular point group: c2v

    Geometry (in Angstrom), charge = 0, multiplicity = 1:

       Center              X                  Y                   Z               Mass
    ------------   -----------------  -----------------  -----------------  -----------------
         C           -0.614610333491     0.000000000000     0.000000000000    12.000000000000
         C            0.614309666509     0.000000000000     0.000000000000    12.000000000000
         H           -1.687440004874     0.000000000000     0.000000000000     1.007825032230
         H            1.691019995126     0.000000000000     0.000000000000     1.007825032230

  Basis Set: 6-311++G**
    Blend: 6-311++G**
  Basis Set: (6-311++G** AUX)
    Blend: AUG-CC-PVTZ-JKFIT
  Basis Set: (6-311++G** AUX)
    Blend: AUG-CC-PVTZ-JKFIT
	 Reference Energy          =     -76.8379015909100076 [Eh]
	 Singles Energy            =      -0.0000000000000000 [Eh]
	 Same-Spin Energy          =      -0.0700114740886633 [Eh]
	 Opposite-Spin Energy      =      -0.2421652981734616 [Eh]
	 Correlation Energy        =      -0.3121767722621249 [Eh]
	 Total Energy              =     -77.1500783631721276 [Eh]

	 ================> DF-SCS-MP2 Energies <==================
	-----------------------------------------------------------
	 SCS Same-Spin Scale       =       0.3333333333333333 [-]
	 SCS Opposite-Spin Scale   =       1.2000000000000000 [-]
	 SCS Same-Spin Energy      =      -0.0233371580295544 [Eh]
	 SCS Opposite-Spin Energy  =      -0.2905983578081539 [Eh]
	 SCS Correlation Energy    =      -0.3139355158377083 [Eh]
	 SCS Total Energy          =     -77.1518371067477204 [Eh]
	-----------------------------------------------------------

  -Total Gradient:
     Atom            X                  Y                   Z
    ------   -----------------  -----------------  -----------------
       1       -0.018113173660     0.000000000000     0.000000000000
       2        0.015189902356     0.000000000000     0.000000000000
       3       -0.006321653041     0.000000000000     0.000000000000
       4        0.009244924345     0.000000000000     0.000000000000

  Vibration                       6                   7                   8
  Freq [cm^-1]                 603.4867            603.4870            819.8295
  Irrep                          B2g                 B1g                 B2u
  Reduced mass [u]              1.5641              1.5641              1.0848
  Force const [mDyne/A]         0.3356              0.3356              0.4296

  Vibration                       9                   10                  11
  Freq [cm^-1]                 819.8296           1889.0310           3365.9365
  Irrep                          B1u                  Ag                 B3u
  Reduced mass [u]              1.0848              4.1227              1.0848
  Force const [mDyne/A]         0.4296              8.6679              7.2413

  Vibration                       12
  Freq [cm^-1]                3451.5872
  Irrep                           Ag
  Reduced mass [u]              1.2005
  Force const [mDyne/A]         8.4263

  ==> Thermochemistry Components <==

  Entropy, S
    Electronic S            0.000 [cal/(mol K)]        0.000 [J/(mol K)]       0.00000000 [mEh/K] (multiplicity = 1)
    Translational S        35.704 [cal/(mol K)]      149.387 [J/(mol K)]       0.05689862 [mEh/K] (mol. weight = 26.0157 [u], P = 101325.00 [Pa])
    Rotational S           10.952 [cal/(mol K)]       45.824 [J/(mol K)]       0.01745345 [mEh/K] (symmetry no. = 2)
    Vibrational S           1.273 [cal/(mol K)]        5.327 [J/(mol K)]       0.00202888 [mEh/K]
  Total S                  47.930 [cal/(mol K)]      200.538 [J/(mol K)]       0.07638094 [mEh/K]
  Correction S              0.000 [cal/(mol K)]        0.000 [J/(mol K)]       0.00000000 [mEh/K]

  Constant volume heat capacity, Cv
    Electronic Cv           0.000 [cal/(mol K)]        0.000 [J/(mol K)]       0.00000000 [mEh/K]
    Translational Cv        2.981 [cal/(mol K)]       12.472 [J/(mol K)]       0.00475022 [mEh/K]
    Rotational Cv           1.987 [cal/(mol K)]        8.314 [J/(mol K)]       0.00316681 [mEh/K]
    Vibrational Cv          3.304 [cal/(mol K)]       13.825 [J/(mol K)]       0.00526566 [mEh/K]
  Total Cv                  8.272 [cal/(mol K)]       34.611 [J/(mol K)]       0.01318269 [mEh/K]
  Correction Cv             0.000 [cal/(mol K)]        0.000 [J/(mol K)]       0.00000000 [mEh/K]

  Constant pressure heat capacity, Cp
    Electronic Cp           0.000 [cal/(mol K)]        0.000 [J/(mol K)]       0.00000000 [mEh/K]
    Translational Cp        4.968 [cal/(mol K)]       20.786 [J/(mol K)]       0.00791703 [mEh/K]
    Rotational Cp           1.987 [cal/(mol K)]        8.314 [J/(mol K)]       0.00316681 [mEh/K]
    Vibrational Cp          3.304 [cal/(mol K)]       13.825 [J/(mol K)]       0.00526566 [mEh/K]
  Total Cp                 10.259 [cal/(mol K)]       42.926 [J/(mol K)]       0.01634950 [mEh/K]
  Correction Cp             0.000 [cal/(mol K)]        0.000 [J/(mol K)]       0.00000000 [mEh/K]

  ==> Thermochemistry Energy Analysis <==

  Raw electronic energy, E0
  Total E0, Electronic energy at well bottom at 0 [K]                  -77.15008372 [Eh]

  Zero-point energy, ZPE_vib = Sum_i nu_i / 2
    Electronic ZPE          0.000 [kcal/mol]        0.000 [kJ/mol]       0.00000000 [Eh]
    Translational ZPE       0.000 [kcal/mol]        0.000 [kJ/mol]       0.00000000 [Eh]
    Rotational ZPE          0.000 [kcal/mol]        0.000 [kJ/mol]       0.00000000 [Eh]
    Vibrational ZPE        16.516 [kcal/mol]       69.103 [kJ/mol]       0.02632010 [Eh]        5776.594 [cm^-1]
  Correction ZPE           16.516 [kcal/mol]       69.103 [kJ/mol]       0.02632010 [Eh]        5776.594 [cm^-1]
  Total ZPE, Electronic energy at 0 [K]                                -77.12376362 [Eh]

  Thermal Energy, E (includes ZPE)
    Electronic E            0.000 [kcal/mol]        0.000 [kJ/mol]       0.00000000 [Eh]
    Translational E         0.889 [kcal/mol]        3.718 [kJ/mol]       0.00141628 [Eh]
    Rotational E            0.592 [kcal/mol]        2.479 [kJ/mol]       0.00094418 [Eh]
    Vibrational E          16.807 [kcal/mol]       70.318 [kJ/mol]       0.02678288 [Eh]
  Correction E             18.288 [kcal/mol]       76.516 [kJ/mol]       0.02914334 [Eh]
  Total E, Electronic energy at  298.15 [K]                            -77.12094038 [Eh]

  Enthalpy, H_trans = E_trans + k_B * T
    Electronic H            0.000 [kcal/mol]        0.000 [kJ/mol]       0.00000000 [Eh]
    Translational H         1.481 [kcal/mol]        6.197 [kJ/mol]       0.00236046 [Eh]
    Rotational H            0.592 [kcal/mol]        2.479 [kJ/mol]       0.00094418 [Eh]
    Vibrational H          16.807 [kcal/mol]       70.318 [kJ/mol]       0.02678288 [Eh]
  Correction H             18.880 [kcal/mol]       78.995 [kJ/mol]       0.03008753 [Eh]
  Total H, Enthalpy at  298.15 [K]                                     -77.11999619 [Eh]

  Gibbs free energy, G = H - T * S
    Electronic G            0.000 [kcal/mol]        0.000 [kJ/mol]       0.00000000 [Eh]
    Translational G        -9.164 [kcal/mol]      -38.342 [kJ/mol]      -0.01460386 [Eh]
    Rotational G           -2.673 [kcal/mol]      -11.183 [kJ/mol]      -0.00425956 [Eh]
    Vibrational G          16.427 [kcal/mol]       68.730 [kJ/mol]       0.02617797 [Eh]
  Correction G              4.590 [kcal/mol]       19.204 [kJ/mol]       0.00731455 [Eh]
  Total G, Free enthalpy at  298.15 [K]                                -77.14276917 [Eh]

*** Psi4 exiting successfully. Buy a developer a beer!
