                               Psi4 1.3.2 release

  ==> Input File <==

--------------------------------------------------------------------------
set basis  6-31++G**
molecule {
0 1
   C       -1.22151       -0.69325        0.00000
   C       -1.21114        0.71122        0.00000
   C       -0.01037       -1.40452        0.00000
   C        0.01037        1.40452        0.00000
   C        1.21114       -0.71122        0.00000
   C        1.22151        0.69325        0.00000
   H       -2.17311       -1.23332        0.00000
   H       -2.15464        1.26533        0.00000
   H       -0.01848       -2.49865        0.00000
   H        0.01848        2.49865        0.00000
   H        2.15464       -1.26533        0.00000
   H        2.17311        1.23332        0.00000
}
energy('MP2')
frequencies('MP2')
--------------------------------------------------------------------------

    Molecular point group: c2h
  Charge       = 0
  Multiplicity = 1
  Basis Set: 6-31++G**
    Blend: 6-31++G**
  Basis Set: (6-31++G** AUX)
    Blend: AUG-CC-PVDZ-JKFIT
  @DF-RHF Final Energy:  -230.71849976905256
    Total Energy =                       -230.7184997690525847
  Basis Set: (6-31++G** AUX)
    Blend: AUG-CC-PVDZ-RI
	 Reference Energy          =    -230.7184997690525563 [Eh]
	 Singles Energy            =      -0.0000000000000000 [Eh]
	 Same-Spin Energy          =      -0.2122455156488796 [Eh]
	 Opposite-Spin Energy      =      -0.6181947221364840 [Eh]
	 Correlation Energy        =      -0.8304402377853636 [Eh]
	 Total Energy              =    -231.5489400068379098 [Eh]
	 SCS Total Energy          =    -231.5310819408326211 [Eh]
    Molecular point group: c2h
  Basis Set: 6-31++G**
    Blend: 6-31++G**
  Basis Set: (6-31++G** AUX)
    Blend: AUG-CC-PVDZ-JKFIT
  @DF-RHF Final Energy:  -230.71849977054038
    Total Energy =                       -230.7184997705404044
  Basis Set: (6-31++G** AUX)
  @DF-RHF Final Energy:  -230.71849977005729
    Total Energy =                       -230.7184997700572922
  @DF-RHF Final Energy:  -230.71849147436225
    Total Energy =                       -230.7184914743622244
  @DF-RHF Final Energy:  -230.71850631096675
    Total Energy =                       -230.7185063109667453
  @DF-RHF Final Energy:  -230.71849517834562
    Total Energy =                       -230.7184951783456199
  @DF-RHF Final Energy:  -230.71850224071818
    Total Energy =                       -230.7185022407181805
  @DF-RHF Final Energy:  -230.71849135887109
    Total Energy =                       -230.7184913588711197
  @DF-RHF Final Energy:  -230.71850627503329
    Total Energy =                       -230.7185062750332918
  @DF-RHF Final Energy:  -230.71850222565990
    Total Energy =                       -230.7185022256599041
  @DF-RHF Final Energy:  -230.71849536532164
    Total Energy =                       -230.7184953653216439
  @DF-RHF Final Energy:  -230.71849862353429
    Total Energy =                       -230.7184986235342876
  @DF-RHF Final Energy:  -230.71849871448728
    Total Energy =                       -230.7184987144872821
  @DF-RHF Final Energy:  -230.71849063991900
    Total Energy =                       -230.7184906399189686
  @DF-RHF Final Energy:  -230.71850726622819
    Total Energy =                       -230.7185072662281868
  @DF-RHF Final Energy:  -230.71840961794405
    Total Energy =                       -230.7184096179440758
  @DF-RHF Final Energy:  -230.71858230098499
    Total Energy =                       -230.7185823009850196
  @DF-RHF Final Energy:  -230.71845820075936
    Total Energy =                       -230.7184582007593576
  @DF-RHF Final Energy:  -230.71853831066929
    Total Energy =                       -230.7185383106693166
  @DF-RHF Final Energy:  -230.71840794294044
    Total Energy =                       -230.7184079429404733
  @DF-RHF Final Energy:  -230.71859044990669
    Total Energy =                       -230.7185904499066851
  @DF-RHF Final Energy:  -230.71849934715686
    Total Energy =                       -230.7184993471568646
  @DF-RHF Final Energy:  -230.71849929332410
    Total Energy =                       -230.7184992933241006
  @DF-RHF Final Energy:  -230.71849928633242
    Total Energy =                       -230.7184992863324169
  @DF-RHF Final Energy:  -230.71849919463338
    Total Energy =                       -230.7184991946334094
  @DF-RHF Final Energy:  -230.71849951359167
    Total Energy =                       -230.7184995135916665
  @DF-RHF Final Energy:  -230.71849950136129
    Total Energy =                       -230.7184995013612934
  @DF-RHF Final Energy:  -230.71849944091358
    Total Energy =                       -230.7184994409135470
  @DF-RHF Final Energy:  -230.71849928525913
    Total Energy =                       -230.7184992852590995
  @DF-RHF Final Energy:  -230.71849927943157
    Total Energy =                       -230.7184992794315690
  @DF-RHF Final Energy:  -230.71849868276485
    Total Energy =                       -230.7184986827648459
  @DF-RHF Final Energy:  -230.71849885189422
    Total Energy =                       -230.7184988518942532
  @DF-RHF Final Energy:  -230.71849853398686
    Total Energy =                       -230.7184985339868604
  @DF-RHF Final Energy:  -230.71849876152606
    Total Energy =                       -230.7184987615260638
  @DF-RHF Final Energy:  -230.71849732994593
    Total Energy =                       -230.7184973299459330
  @DF-RHF Final Energy:  -230.71849693388862
    Total Energy =                       -230.7184969338886162
  @DF-RHF Final Energy:  -230.71849665053881
    Total Energy =                       -230.7184966505388388
  @DF-RHF Final Energy:  -230.71849757452202
    Total Energy =                       -230.7184975745220186
  @DF-RHF Final Energy:  -230.71849757516310
    Total Energy =                       -230.7184975751630986
    Molecular point group: cs
  Charge       = 0
  Multiplicity = 1
  Basis Set: 6-31++G**
    Blend: 6-31++G**
  Basis Set: (6-31++G** AUX)
    Blend: AUG-CC-PVDZ-JKFIT

    Orbital Energies [Eh]
    ---------------------

    Doubly Occupied:

       1Ap   -11.247016     2Ap   -11.246478     3Ap   -11.246459
       4Ap   -11.245323     5Ap   -11.245307     6Ap   -11.244747
       7Ap    -1.146429     8Ap    -1.012926     9Ap    -1.012919
      10Ap    -0.822255    11Ap    -0.822242    12Ap    -0.704656
      13Ap    -0.643359    14Ap    -0.616378    15Ap    -0.586213
      16Ap    -0.586210     1App   -0.497152    17Ap    -0.494572
      18Ap    -0.494543     2App   -0.334857     3App   -0.334847

  @DF-RHF Final Energy:  -230.71849665269940

   => Energetics <=

    Nuclear Repulsion Energy =            202.0133184684007119
    One-Electron Energy =                -710.2938523931146619
    Two-Electron Energy =                 277.5620372720145497
    Total Energy =                       -230.7184966526994003

  Dipole Moment: [D]
     X:    -0.0011      Y:    -0.0018      Z:     0.0000     Total:     0.0021

  Basis Set: (6-31++G** AUX)
    Blend: AUG-CC-PVDZ-RI
    Molecular point group: cs

    Geometry (in Angstrom), charge = 0, multiplicity = 1:

       Center              X                  Y                   Z               Mass
    ------------   -----------------  -----------------  -----------------  -----------------
         C           -1.221510000000    -0.693250000000     0.000000000000    12.000000000000
         C           -1.211140000000     0.711220000000     0.000000000000    12.000000000000
         C           -0.010370000000    -1.404520000000     0.000000000000    12.000000000000
         C            0.010370000000     1.404520000000     0.000000000000    12.000000000000
         C            1.211140000000    -0.711220000000     0.000000000000    12.000000000000
         C            1.221510000000     0.693250000000     0.000000000000    12.000000000000
         H           -2.173110000000    -1.233320000000     0.000000000000     1.007825032230
         H           -2.154640000000     1.264012202829     0.000000000000     1.007825032230
         H           -0.018480000000    -2.497332202829     0.000000000000     1.007825032230
         H            0.018480000000     2.499967797171     0.000000000000     1.007825032230
         H            2.154640000000    -1.266647797171     0.000000000000     1.007825032230
         H            2.173110000000     1.233320000000     0.000000000000     1.007825032230

  Basis Set: 6-31++G**
    Blend: 6-31++G**
  Basis Set: (6-31++G** AUX)
    Blend: AUG-CC-PVDZ-JKFIT
  Basis Set: (6-31++G** AUX)
    Blend: AUG-CC-PVDZ-JKFIT
	 Reference Energy          =    -230.7184966526994003 [Eh]
	 Singles Energy            =      -0.0000000000000000 [Eh]
	 Same-Spin Energy          =      -0.2122455468980498 [Eh]
	 Opposite-Spin Energy      =      -0.6181948034640675 [Eh]
	 Correlation Energy        =      -0.8304403503621173 [Eh]
	 Total Energy              =    -231.5489370030615248 [Eh]

	 ================> DF-SCS-MP2 Energies <==================
	-----------------------------------------------------------
	 SCS Same-Spin Scale       =       0.3333333333333333 [-]
	 SCS Opposite-Spin Scale   =       1.2000000000000000 [-]
	 SCS Same-Spin Energy      =      -0.0707485156326833 [Eh]
	 SCS Opposite-Spin Energy  =      -0.7418337641568810 [Eh]
	 SCS Correlation Energy    =      -0.8125822797895642 [Eh]
	 SCS Total Energy          =    -231.5310789324889527 [Eh]
	-----------------------------------------------------------

  -Total Gradient:
     Atom            X                  Y                   Z
    ------   -----------------  -----------------  -----------------
       1        0.000891277795     0.000586973404     0.000000000000
       2        0.000695253755    -0.000302648624     0.000000000000
       3        0.000053261853     0.000255156491     0.000000000000
       4        0.000020410992    -0.001924518307     0.000000000000
       5       -0.001234446553     0.000913978977     0.000000000000
       6       -0.001057351498    -0.000585214464     0.000000000000
       7       -0.007220698964    -0.004104570553     0.000000000000
       8       -0.006853203236     0.003877299677     0.000000000000
       9       -0.000063920161    -0.007429463893     0.000000000000
      10        0.000064835431     0.009166364581     0.000000000000
      11        0.007474237802    -0.004552093432     0.000000000000
      12        0.007230342783     0.004098736144     0.000000000000

  Vibration                       1                   8                   9
  Freq [cm^-1]                912.8600i            363.9055            363.9720
  Irrep                           Bg                  Au                  Au
  Reduced mass [u]              8.8678              4.3825              4.3817
  Force const [mDyne/A]        -4.3539              0.3419              0.3420

  Vibration                       10                  11                  12
  Freq [cm^-1]                 619.9524            620.8255            736.6837
  Irrep                           Ag                  Ag                  Au
  Reduced mass [u]              6.2467              6.2563              1.0848
  Force const [mDyne/A]         1.4146              1.4207              0.3469

  Vibration                       13                  14                  15
  Freq [cm^-1]                 866.4374            866.4827            881.2081
  Irrep                           Bg                  Bg                  Au
  Reduced mass [u]              1.2479              1.2479              1.1802
  Force const [mDyne/A]         0.5519              0.5520              0.5399

  Vibration                       16                  17                  18
  Freq [cm^-1]                 881.2774            887.2199           1001.8181
  Irrep                           Au                  Bg                  Ag
  Reduced mass [u]              1.1801              1.0386              5.9615
  Force const [mDyne/A]         0.5400              0.4817              3.5252

  Vibration                       19                  20                  21
  Freq [cm^-1]                1009.6199           1073.6265           1075.6072
  Irrep                           Bu                  Bu                  Bu
  Reduced mass [u]              6.5428              1.8327              1.8485
  Force const [mDyne/A]         3.9294              1.2447              1.2600

  Vibration                       22                  23                  24
  Freq [cm^-1]                1213.9062           1227.3412           1229.0118
  Irrep                           Bu                  Ag                  Ag
  Reduced mass [u]              1.0767              1.1618              1.1623
  Force const [mDyne/A]         0.9348              1.0311              1.0344

  Vibration                       25                  26                  27
  Freq [cm^-1]                1409.2862           1438.3576           1531.2541
  Irrep                           Ag                  Bu                  Bu
  Reduced mass [u]              1.2479              6.8074              1.8516
  Force const [mDyne/A]         1.4602              8.2978              2.5580

  Vibration                       28                  29                  30
  Freq [cm^-1]                1532.9714           1642.1615           1643.5930
  Irrep                           Bu                  Ag                  Ag
  Reduced mass [u]              1.8364              4.7117              4.7137
  Force const [mDyne/A]         2.5426              7.4862              7.5024

  Vibration                       31                  32                  33
  Freq [cm^-1]                3128.1981           3141.1275           3142.0001
  Irrep                           Bu                  Ag                  Ag
  Reduced mass [u]              1.0837              1.0888              1.0888
  Force const [mDyne/A]         6.2480              6.3298              6.3330

  Vibration                       34                  35                  36
  Freq [cm^-1]                3158.0945           3158.8119           3168.5645
  Irrep                           Bu                  Bu                  Ag
  Reduced mass [u]              1.0969              1.0968              1.1015
  Force const [mDyne/A]         6.4456              6.4479              6.5154

  ==> Thermochemistry Components <==

  Entropy, S
    Electronic S            0.000 [cal/(mol K)]        0.000 [J/(mol K)]       0.00000000 [mEh/K] (multiplicity = 1)
    Translational S        38.979 [cal/(mol K)]      163.089 [J/(mol K)]       0.06211726 [mEh/K] (mol. weight = 78.0470 [u], P = 101325.00 [Pa])
    Rotational S           24.318 [cal/(mol K)]      101.746 [J/(mol K)]       0.03875307 [mEh/K] (symmetry no. = 2)
    Vibrational S           4.574 [cal/(mol K)]       19.139 [J/(mol K)]       0.00728955 [mEh/K]
  Total S                  67.871 [cal/(mol K)]      283.974 [J/(mol K)]       0.10815988 [mEh/K]
  Correction S              0.000 [cal/(mol K)]        0.000 [J/(mol K)]       0.00000000 [mEh/K]

  Constant volume heat capacity, Cv
    Electronic Cv           0.000 [cal/(mol K)]        0.000 [J/(mol K)]       0.00000000 [mEh/K]
    Translational Cv        2.981 [cal/(mol K)]       12.472 [J/(mol K)]       0.00475022 [mEh/K]
    Rotational Cv           2.981 [cal/(mol K)]       12.472 [J/(mol K)]       0.00475022 [mEh/K]
    Vibrational Cv         10.833 [cal/(mol K)]       45.327 [J/(mol K)]       0.01726410 [mEh/K]
  Total Cv                 16.795 [cal/(mol K)]       70.270 [J/(mol K)]       0.02676454 [mEh/K]
  Correction Cv             0.000 [cal/(mol K)]        0.000 [J/(mol K)]       0.00000000 [mEh/K]

  Constant pressure heat capacity, Cp
    Electronic Cp           0.000 [cal/(mol K)]        0.000 [J/(mol K)]       0.00000000 [mEh/K]
    Translational Cp        4.968 [cal/(mol K)]       20.786 [J/(mol K)]       0.00791703 [mEh/K]
    Rotational Cp           2.981 [cal/(mol K)]       12.472 [J/(mol K)]       0.00475022 [mEh/K]
    Vibrational Cp         10.833 [cal/(mol K)]       45.327 [J/(mol K)]       0.01726410 [mEh/K]
  Total Cp                 18.782 [cal/(mol K)]       78.585 [J/(mol K)]       0.02993135 [mEh/K]
  Correction Cp             0.000 [cal/(mol K)]        0.000 [J/(mol K)]       0.00000000 [mEh/K]

  ==> Thermochemistry Energy Analysis <==

  Raw electronic energy, E0
  Total E0, Electronic energy at well bottom at 0 [K]                 -231.54894001 [Eh]

  Zero-point energy, ZPE_vib = Sum_i nu_i / 2
    Electronic ZPE          0.000 [kcal/mol]        0.000 [kJ/mol]       0.00000000 [Eh]
    Translational ZPE       0.000 [kcal/mol]        0.000 [kJ/mol]       0.00000000 [Eh]
    Rotational ZPE          0.000 [kcal/mol]        0.000 [kJ/mol]       0.00000000 [Eh]
    Vibrational ZPE        61.491 [kcal/mol]      257.277 [kJ/mol]       0.09799154 [Eh]       21506.658 [cm^-1]
  Correction ZPE           61.491 [kcal/mol]      257.277 [kJ/mol]       0.09799154 [Eh]       21506.658 [cm^-1]
  Total ZPE, Electronic energy at 0 [K]                               -231.45094847 [Eh]

  Thermal Energy, E (includes ZPE)
    Electronic E            0.000 [kcal/mol]        0.000 [kJ/mol]       0.00000000 [Eh]
    Translational E         0.889 [kcal/mol]        3.718 [kJ/mol]       0.00141628 [Eh]
    Rotational E            0.889 [kcal/mol]        3.718 [kJ/mol]       0.00141628 [Eh]
    Vibrational E          62.485 [kcal/mol]      261.437 [kJ/mol]       0.09957628 [Eh]
  Correction E             64.263 [kcal/mol]      268.874 [kJ/mol]       0.10240883 [Eh]
  Total E, Electronic energy at  298.15 [K]                           -231.44653118 [Eh]

  Enthalpy, H_trans = E_trans + k_B * T
    Electronic H            0.000 [kcal/mol]        0.000 [kJ/mol]       0.00000000 [Eh]
    Translational H         1.481 [kcal/mol]        6.197 [kJ/mol]       0.00236046 [Eh]
    Rotational H            0.889 [kcal/mol]        3.718 [kJ/mol]       0.00141628 [Eh]
    Vibrational H          62.485 [kcal/mol]      261.437 [kJ/mol]       0.09957628 [Eh]
  Correction H             64.855 [kcal/mol]      271.353 [kJ/mol]       0.10335302 [Eh]
  Total H, Enthalpy at  298.15 [K]                                    -231.44558700 [Eh]

  Gibbs free energy, G = H - T * S
    Electronic G            0.000 [kcal/mol]        0.000 [kJ/mol]       0.00000000 [Eh]
    Translational G       -10.140 [kcal/mol]      -42.428 [kJ/mol]      -0.01615980 [Eh]
    Rotational G           -6.362 [kcal/mol]      -26.617 [kJ/mol]      -0.01013795 [Eh]
    Vibrational G          61.121 [kcal/mol]      255.731 [kJ/mol]       0.09740290 [Eh]
  Correction G             44.619 [kcal/mol]      186.687 [kJ/mol]       0.07110515 [Eh]
  Total G, Free enthalpy at  298.15 [K]                               -231.47783486 [Eh]

*** Psi4 exiting successfully. Buy a developer a beer!
