                               Psi4 1.3.2 release

  ==> Input File <==

--------------------------------------------------------------------------
set basis  aug-cc-pVDZ
molecule {
0 1
   C        0.32153        0.81326        0.00000
   C       -0.86505       -0.12817        0.00000
   C        0.54353       -0.68508        0.00000
   H        0.53795        1.36069       -0.92039
   H        0.53795        1.36069        0.92039
   H       -1.44742       -0.21449        0.92034
   H       -1.44742       -0.21449       -0.92034
   H        0.90937       -1.14629       -0.92037
   H        0.90937       -1.14629        0.92037
}
energy('MP2')
frequencies('MP2')
--------------------------------------------------------------------------

    Molecular point group: cs
  Charge       = 0
  Multiplicity = 1
  Basis Set: AUG-CC-PVDZ
    Blend: AUG-CC-PVDZ
  Basis Set: (AUG-CC-PVDZ AUX)
    Blend: AUG-CC-PVDZ-JKFIT
  @DF-RHF Final Energy:  -117.07044707761801
    Total Energy =                       -117.0704470776180131
  Basis Set: (AUG-CC-PVDZ AUX)
    Blend: AUG-CC-PVDZ-RI
	 Reference Energy          =    -117.0704470776180131 [Eh]
	 Singles Energy            =      -0.0000000000000000 [Eh]
	 Same-Spin Energy          =      -0.1048079042726970 [Eh]
	 Opposite-Spin Energy      =      -0.3439565537494046 [Eh]
	 Correlation Energy        =      -0.4487644580221016 [Eh]
	 Total Energy              =    -117.5192115356401104 [Eh]
	 SCS Total Energy          =    -117.5181309102081997 [Eh]
    Molecular point group: cs
  Basis Set: AUG-CC-PVDZ
    Blend: AUG-CC-PVDZ
  Basis Set: (AUG-CC-PVDZ AUX)
    Blend: AUG-CC-PVDZ-JKFIT
  @DF-RHF Final Energy:  -117.07044707733657
    Total Energy =                       -117.0704470773365671
  Basis Set: (AUG-CC-PVDZ AUX)
  @DF-RHF Final Energy:  -117.07044707733657
    Total Energy =                       -117.0704470773365671
  @DF-RHF Final Energy:  -117.07044894261664
    Total Energy =                       -117.0704489426166361
  @DF-RHF Final Energy:  -117.07044397487392
    Total Energy =                       -117.0704439748739247
  @DF-RHF Final Energy:  -117.07045138074520
    Total Energy =                       -117.0704513807451974
  @DF-RHF Final Energy:  -117.07044099051953
    Total Energy =                       -117.0704409905195291
  @DF-RHF Final Energy:  -117.07044071150408
    Total Energy =                       -117.0704407115040766
  @DF-RHF Final Energy:  -117.07045134276356
    Total Energy =                       -117.0704513427635618
  @DF-RHF Final Energy:  -117.07044742005634
    Total Energy =                       -117.0704474200563396
  @DF-RHF Final Energy:  -117.07044518598245
    Total Energy =                       -117.0704451859824502
  @DF-RHF Final Energy:  -117.07044773724999
    Total Energy =                       -117.0704477372499923
  @DF-RHF Final Energy:  -117.07044394009439
    Total Energy =                       -117.0704439400943926
  @DF-RHF Final Energy:  -117.07044371690711
    Total Energy =                       -117.0704437169071070
  @DF-RHF Final Energy:  -117.07044784897442
    Total Energy =                       -117.0704478489744247
  @DF-RHF Final Energy:  -117.07046343256675
    Total Energy =                       -117.0704634325667541
  @DF-RHF Final Energy:  -117.07042797425865
    Total Energy =                       -117.0704279742586493
  @DF-RHF Final Energy:  -117.07047720411545
    Total Energy =                       -117.0704772041154484
  @DF-RHF Final Energy:  -117.07041383063759
    Total Energy =                       -117.0704138306375910
  @DF-RHF Final Energy:  -117.07038985723320
    Total Energy =                       -117.0703898572331951
  @DF-RHF Final Energy:  -117.07049696400939
    Total Energy =                       -117.0704969640093935
  @DF-RHF Final Energy:  -117.07040912307983
    Total Energy =                       -117.0704091230798269
  @DF-RHF Final Energy:  -117.07048174188623
    Total Energy =                       -117.0704817418862262
  @DF-RHF Final Energy:  -117.07049689029094
    Total Energy =                       -117.0704968902909400
  @DF-RHF Final Energy:  -117.07038993171619
    Total Energy =                       -117.0703899317161927
  @DF-RHF Final Energy:  -117.07038988630337
    Total Energy =                       -117.0703898863033743
  @DF-RHF Final Energy:  -117.07049693539290
    Total Energy =                       -117.0704969353928959
  @DF-RHF Final Energy:  -117.07044499619980
    Total Energy =                       -117.0704449961997966
  @DF-RHF Final Energy:  -117.07044476442309
    Total Energy =                       -117.0704447644230868
  @DF-RHF Final Energy:  -117.07044402594339
    Total Energy =                       -117.0704440259433881
  @DF-RHF Final Energy:  -117.07044619889923
    Total Energy =                       -117.0704461988992335
  @DF-RHF Final Energy:  -117.07044480734046
    Total Energy =                       -117.0704448073404649
  @DF-RHF Final Energy:  -117.07044493574242
    Total Energy =                       -117.0704449357424153
  @DF-RHF Final Energy:  -117.07044467586260
    Total Energy =                       -117.0704446758626034
  @DF-RHF Final Energy:  -117.07044642194491
    Total Energy =                       -117.0704464219449079
    Molecular point group: c1
  Charge       = 0
  Multiplicity = 1
  Basis Set: AUG-CC-PVDZ
    Blend: AUG-CC-PVDZ
  Basis Set: (AUG-CC-PVDZ AUX)
    Blend: AUG-CC-PVDZ-JKFIT

    Orbital Energies [Eh]
    ---------------------

    Doubly Occupied:

       1A    -11.233025     2A    -11.232063     3A    -11.232058
       4A     -1.127114     5A     -0.814581     6A     -0.814575
       7A     -0.662551     8A     -0.621769     9A     -0.509412
      10A     -0.509397    11A     -0.416644    12A     -0.416636

  @DF-RHF Final Energy:  -117.07044438747644

   => Energetics <=

    Nuclear Repulsion Energy =             75.2814718714328848
    One-Electron Energy =                -305.5241814252052563
    Two-Electron Energy =                 113.1722651662959436
    Total Energy =                       -117.0704443874764422

  Dipole Moment: [D]
     X:    -0.0001      Y:    -0.0001      Z:    -0.0007     Total:     0.0007

  Basis Set: (AUG-CC-PVDZ AUX)
    Blend: AUG-CC-PVDZ-RI
    Molecular point group: c1

    Geometry (in Angstrom), charge = 0, multiplicity = 1:

       Center              X                  Y                   Z               Mass
    ------------   -----------------  -----------------  -----------------  -----------------
         C            0.321531939855     0.813261460475     0.000000000000    12.000000000000
         C           -0.865048060145    -0.128168539525     0.000000000000    12.000000000000
         C            0.543531939855    -0.685078539525     0.000000000000    12.000000000000
         H            0.537951939855     1.360691460475    -0.920390000000     1.007825032230
         H            0.537951939855     1.360691460475     0.920390000000     1.007825032230
         H           -1.447418060145    -0.214488539525     0.919737951237     1.007825032230
         H           -1.447418060145    -0.214488539525    -0.920942048763     1.007825032230
         H            0.907830274543    -1.145679013968    -0.919767951237     1.007825032230
         H            0.910913605168    -1.146898065083     0.920972048763     1.007825032230

  Basis Set: AUG-CC-PVDZ
    Blend: AUG-CC-PVDZ
  Basis Set: (AUG-CC-PVDZ AUX)
    Blend: AUG-CC-PVDZ-JKFIT
  Basis Set: (AUG-CC-PVDZ AUX)
    Blend: AUG-CC-PVDZ-JKFIT
	 Reference Energy          =    -117.0704443874764422 [Eh]
	 Singles Energy            =      -0.0000000000000000 [Eh]
	 Same-Spin Energy          =      -0.1048079033144060 [Eh]
	 Opposite-Spin Energy      =      -0.3439565784661453 [Eh]
	 Correlation Energy        =      -0.4487644817805513 [Eh]
	 Total Energy              =    -117.5192088692569996 [Eh]

	 ================> DF-SCS-MP2 Energies <==================
	-----------------------------------------------------------
	 SCS Same-Spin Scale       =       0.3333333333333333 [-]
	 SCS Opposite-Spin Scale   =       1.2000000000000000 [-]
	 SCS Same-Spin Energy      =      -0.0349359677714687 [Eh]
	 SCS Opposite-Spin Energy  =      -0.4127478941593744 [Eh]
	 SCS Correlation Energy    =      -0.4476838619308430 [Eh]
	 SCS Total Energy          =    -117.5181282494072832 [Eh]
	-----------------------------------------------------------

  -Total Gradient:
     Atom            X                  Y                   Z
    ------   -----------------  -----------------  -----------------
       1       -0.001519747472    -0.003841466445     0.000006448593
       2        0.004110863482     0.000611453085     0.000472154115
       3       -0.002570328370     0.003245062961    -0.001318979142
       4        0.000391088040     0.000992918045    -0.001214780797
       5        0.000396475509     0.001005472596     0.001211746531
       6       -0.000884415924    -0.000156268689     0.000909497798
       7       -0.001255908803    -0.000165715734    -0.001497893036
       8        0.000294633307    -0.000469927893    -0.000491234635
       9        0.001037340233    -0.001221527924     0.001923040575

  Vibration                       7                   8                   9
  Freq [cm^-1]                 741.1182            741.1380            862.3794
  Irrep                          App                 App                 App
  Reduced mass [u]              1.0232              1.0232              1.0439
  Force const [mDyne/A]         0.3311              0.3311              0.4574

  Vibration                       10                  11                  12
  Freq [cm^-1]                 901.9413            901.9822           1043.5034
  Irrep                           Ap                  Ap                  Ap
  Reduced mass [u]              3.9124              3.9131              1.2430
  Force const [mDyne/A]         1.8752              1.8757              0.7974

  Vibration                       13                  14                  15
  Freq [cm^-1]                1043.5137           1063.7664           1155.3314
  Irrep                           Ap                  Ap                 App
  Reduced mass [u]              1.2430              1.4254              1.0078
  Force const [mDyne/A]         0.7975              0.9504              0.7926

  Vibration                       16                  17                  18
  Freq [cm^-1]                1206.1662           1206.1685           1233.4029
  Irrep                          App                 App                  Ap
  Reduced mass [u]              1.4475              1.4475              2.4713
  Force const [mDyne/A]         1.2408              1.2408              2.2151

  Vibration                       19                  20                  21
  Freq [cm^-1]                1468.2254           1468.2349           1522.9112
  Irrep                           Ap                  Ap                  Ap
  Reduced mass [u]              1.0898              1.0898              1.3778
  Force const [mDyne/A]         1.3841              1.3841              1.8827

  Vibration                       22                  23                  24
  Freq [cm^-1]                3160.1184           3160.1391           3171.1914
  Irrep                           Ap                  Ap                  Ap
  Reduced mass [u]              1.0508              1.0508              1.0668
  Force const [mDyne/A]         6.1829              6.1830              6.3211

  Vibration                       25                  26                  27
  Freq [cm^-1]                3254.5982           3254.6087           3274.5491
  Irrep                          App                 App                 App
  Reduced mass [u]              1.1198              1.1198              1.1163
  Force const [mDyne/A]         6.9885              6.9886              7.0526

  ==> Thermochemistry Components <==

  Entropy, S
    Electronic S            0.000 [cal/(mol K)]        0.000 [J/(mol K)]       0.00000000 [mEh/K] (multiplicity = 1)
    Translational S        37.135 [cal/(mol K)]      155.375 [J/(mol K)]       0.05917914 [mEh/K] (mol. weight = 42.0470 [u], P = 101325.00 [Pa])
    Rotational S           21.699 [cal/(mol K)]       90.789 [J/(mol K)]       0.03457982 [mEh/K] (symmetry no. = 1)
    Vibrational S           1.394 [cal/(mol K)]        5.833 [J/(mol K)]       0.00222184 [mEh/K]
  Total S                  60.229 [cal/(mol K)]      251.998 [J/(mol K)]       0.09598080 [mEh/K]
  Correction S              0.000 [cal/(mol K)]        0.000 [J/(mol K)]       0.00000000 [mEh/K]

  Constant volume heat capacity, Cv
    Electronic Cv           0.000 [cal/(mol K)]        0.000 [J/(mol K)]       0.00000000 [mEh/K]
    Translational Cv        2.981 [cal/(mol K)]       12.472 [J/(mol K)]       0.00475022 [mEh/K]
    Rotational Cv           2.981 [cal/(mol K)]       12.472 [J/(mol K)]       0.00475022 [mEh/K]
    Vibrational Cv          5.088 [cal/(mol K)]       21.290 [J/(mol K)]       0.00810890 [mEh/K]
  Total Cv                 11.050 [cal/(mol K)]       46.233 [J/(mol K)]       0.01760933 [mEh/K]
  Correction Cv             0.000 [cal/(mol K)]        0.000 [J/(mol K)]       0.00000000 [mEh/K]

  Constant pressure heat capacity, Cp
    Electronic Cp           0.000 [cal/(mol K)]        0.000 [J/(mol K)]       0.00000000 [mEh/K]
    Translational Cp        4.968 [cal/(mol K)]       20.786 [J/(mol K)]       0.00791703 [mEh/K]
    Rotational Cp           2.981 [cal/(mol K)]       12.472 [J/(mol K)]       0.00475022 [mEh/K]
    Vibrational Cp          5.088 [cal/(mol K)]       21.290 [J/(mol K)]       0.00810890 [mEh/K]
  Total Cp                 13.037 [cal/(mol K)]       54.548 [J/(mol K)]       0.02077614 [mEh/K]
  Correction Cp             0.000 [cal/(mol K)]        0.000 [J/(mol K)]       0.00000000 [mEh/K]

  ==> Thermochemistry Energy Analysis <==

  Raw electronic energy, E0
  Total E0, Electronic energy at well bottom at 0 [K]                 -117.51921153 [Eh]

  Zero-point energy, ZPE_vib = Sum_i nu_i / 2
    Electronic ZPE          0.000 [kcal/mol]        0.000 [kJ/mol]       0.00000000 [Eh]
    Translational ZPE       0.000 [kcal/mol]        0.000 [kJ/mol]       0.00000000 [Eh]
    Rotational ZPE          0.000 [kcal/mol]        0.000 [kJ/mol]       0.00000000 [Eh]
    Vibrational ZPE        51.229 [kcal/mol]      214.341 [kJ/mol]       0.08163811 [Eh]       17917.494 [cm^-1]
  Correction ZPE           51.229 [kcal/mol]      214.341 [kJ/mol]       0.08163811 [Eh]       17917.494 [cm^-1]
  Total ZPE, Electronic energy at 0 [K]                               -117.43757342 [Eh]

  Thermal Energy, E (includes ZPE)
    Electronic E            0.000 [kcal/mol]        0.000 [kJ/mol]       0.00000000 [Eh]
    Translational E         0.889 [kcal/mol]        3.718 [kJ/mol]       0.00141628 [Eh]
    Rotational E            0.889 [kcal/mol]        3.718 [kJ/mol]       0.00141628 [Eh]
    Vibrational E          51.566 [kcal/mol]      215.753 [kJ/mol]       0.08217593 [Eh]
  Correction E             53.344 [kcal/mol]      223.190 [kJ/mol]       0.08500848 [Eh]
  Total E, Electronic energy at  298.15 [K]                           -117.43420305 [Eh]

  Enthalpy, H_trans = E_trans + k_B * T
    Electronic H            0.000 [kcal/mol]        0.000 [kJ/mol]       0.00000000 [Eh]
    Translational H         1.481 [kcal/mol]        6.197 [kJ/mol]       0.00236046 [Eh]
    Rotational H            0.889 [kcal/mol]        3.718 [kJ/mol]       0.00141628 [Eh]
    Vibrational H          51.566 [kcal/mol]      215.753 [kJ/mol]       0.08217593 [Eh]
  Correction H             53.936 [kcal/mol]      225.669 [kJ/mol]       0.08595267 [Eh]
  Total H, Enthalpy at  298.15 [K]                                    -117.43325887 [Eh]

  Gibbs free energy, G = H - T * S
    Electronic G            0.000 [kcal/mol]        0.000 [kJ/mol]       0.00000000 [Eh]
    Translational G        -9.591 [kcal/mol]      -40.128 [kJ/mol]      -0.01528380 [Eh]
    Rotational G           -5.581 [kcal/mol]      -23.350 [kJ/mol]      -0.00889370 [Eh]
    Vibrational G          51.150 [kcal/mol]      214.014 [kJ/mol]       0.08151349 [Eh]
  Correction G             35.979 [kcal/mol]      150.536 [kJ/mol]       0.05733599 [Eh]
  Total G, Free enthalpy at  298.15 [K]                               -117.46187554 [Eh]

*** Psi4 exiting successfully. Buy a developer a beer!
