                               Psi4 1.3.2 release

  ==> Input File <==

--------------------------------------------------------------------------
set basis  cc-pVTZ
molecule {
0 1
   C        0.32153        0.81326        0.00000
   C       -0.86505       -0.12817        0.00000
   C        0.54353       -0.68508        0.00000
   H        0.53795        1.36069       -0.92039
   H        0.53795        1.36069        0.92039
   H       -1.44742       -0.21449        0.92034
   H       -1.44742       -0.21449       -0.92034
   H        0.90937       -1.14629       -0.92037
   H        0.90937       -1.14629        0.92037
}
energy('B3LYP')
frequencies('B3LYP')
--------------------------------------------------------------------------

    Molecular point group: cs
  Charge       = 0
  Multiplicity = 1
  Basis Set: CC-PVTZ
    Blend: CC-PVTZ
  Basis Set: (CC-PVTZ AUX)
    Blend: CC-PVTZ-JKFIT
  @DF-RKS Final Energy:  -117.94199502352262
    Total Energy =                       -117.9419950235226224
    Molecular point group: cs
  Basis Set: CC-PVTZ
    Blend: CC-PVTZ
  Basis Set: (CC-PVTZ AUX)
    Blend: CC-PVTZ-JKFIT
  @DF-RKS Final Energy:  -117.94199502493575
    Total Energy =                       -117.9419950249357498
  Basis Set: CC-PVTZ
    Blend: CC-PVTZ
  Basis Set: (CC-PVTZ AUX)
    Blend: CC-PVTZ-JKFIT
  Basis Set: CC-PVTZ
    Blend: CC-PVTZ
  Basis Set: (CC-PVTZ AUX)
    Blend: CC-PVTZ-JKFIT
  @DF-RKS Final Energy:  -117.94199502493579
    Total Energy =                       -117.9419950249357925
  Basis Set: CC-PVTZ
  @DF-RKS Final Energy:  -117.94199811118855
    Total Energy =                       -117.9419981111885534
  @DF-RKS Final Energy:  -117.94199815956280
    Total Energy =                       -117.9419981595628002
  @DF-RKS Final Energy:  -117.94199757382033
    Total Energy =                       -117.9419975738203306
  @DF-RKS Final Energy:  -117.94199275852645
    Total Energy =                       -117.9419927585264531
  @DF-RKS Final Energy:  -117.94199134005495
    Total Energy =                       -117.9419913400549547
  @DF-RKS Final Energy:  -117.94199641516099
    Total Energy =                       -117.9419964151609861
  @DF-RKS Final Energy:  -117.94199653118396
    Total Energy =                       -117.9419965311839604
  @DF-RKS Final Energy:  -117.94199901949889
    Total Energy =                       -117.9419990194988941
  @DF-RKS Final Energy:  -117.94199695977845
    Total Energy =                       -117.9419969597784501
  @DF-RKS Final Energy:  -117.94199267727107
    Total Energy =                       -117.9419926772710738
  @DF-RKS Final Energy:  -117.94199273910026
    Total Energy =                       -117.9419927391002574
  @DF-RKS Final Energy:  -117.94199541629946
    Total Energy =                       -117.9419954162994770
  @DF-RKS Final Energy:  -117.94201201394401
    Total Energy =                       -117.9420120139440087
  @DF-RKS Final Energy:  -117.94198286658582
    Total Energy =                       -117.9419828665858176
  @DF-RKS Final Energy:  -117.94202065057719
    Total Energy =                       -117.9420206505771915
  @DF-RKS Final Energy:  -117.94196611763478
    Total Energy =                       -117.9419661176347773
  @DF-RKS Final Energy:  -117.94194215445923
    Total Energy =                       -117.9419421544592268
  @DF-RKS Final Energy:  -117.94204120892863
    Total Energy =                       -117.9420412089286287
  @DF-RKS Final Energy:  -117.94196861867908
    Total Energy =                       -117.9419686186790841
  @DF-RKS Final Energy:  -117.94203129002595
    Total Energy =                       -117.9420312900259518
  @DF-RKS Final Energy:  -117.94204111037844
    Total Energy =                       -117.9420411103784403
  @DF-RKS Final Energy:  -117.94194225333025
    Total Energy =                       -117.9419422533302537
  @DF-RKS Final Energy:  -117.94194220525023
    Total Energy =                       -117.9419422052502284
  @DF-RKS Final Energy:  -117.94204115832170
    Total Energy =                       -117.9420411583217003
  @DF-RKS Final Energy:  -117.94199313244805
    Total Energy =                       -117.9419931324480473
  @DF-RKS Final Energy:  -117.94199293683211
    Total Energy =                       -117.9419929368321078
  @DF-RKS Final Energy:  -117.94199228346696
    Total Energy =                       -117.9419922834669592
  @DF-RKS Final Energy:  -117.94199417145025
    Total Energy =                       -117.9419941714502471
  @DF-RKS Final Energy:  -117.94199302644714
    Total Energy =                       -117.9419930264471361
  @DF-RKS Final Energy:  -117.94199297756015
    Total Energy =                       -117.9419929775601474
  @DF-RKS Final Energy:  -117.94199284329697
    Total Energy =                       -117.9419928432969726
  Basis Set: (CC-PVTZ AUX)
    Blend: CC-PVTZ-JKFIT
  Basis Set: CC-PVTZ
    Blend: CC-PVTZ
  Basis Set: (CC-PVTZ AUX)
    Blend: CC-PVTZ-JKFIT
  @DF-RKS Final Energy:  -117.94199445712125
    Total Energy =                       -117.9419944571212682
  Basis Set: CC-PVTZ
    Blend: CC-PVTZ
  Basis Set: (CC-PVTZ AUX)
    Blend: CC-PVTZ-JKFIT
    Molecular point group: c1
  Charge       = 0
  Multiplicity = 1
  Basis Set: CC-PVTZ
    Blend: CC-PVTZ
  Basis Set: (CC-PVTZ AUX)
    Blend: CC-PVTZ-JKFIT

    Orbital Energies [Eh]
    ---------------------

    Doubly Occupied:

       1A    -10.176801     2A    -10.176424     3A    -10.176420
       4A     -0.846834     5A     -0.596016     6A     -0.596011
       7A     -0.493096     8A     -0.464340     9A     -0.364956
      10A     -0.364942    11A     -0.297010    12A     -0.297004

  @DF-RKS Final Energy:  -117.94199267649184

   => Energetics <=

    Nuclear Repulsion Energy =             75.2814718714328848
    One-Electron Energy =                -305.9740287745196952
    Two-Electron Energy =                 127.7309912345560861
    DFT Exchange-Correlation Energy =     -14.9804270079610937
    Empirical Dispersion Energy =           0.0000000000000000
    VV10 Nonlocal Energy =                  0.0000000000000000
    Total Energy =                       -117.9419926764918358

  Dipole Moment: [D]
     X:    -0.0001      Y:    -0.0000      Z:    -0.0006     Total:     0.0006

    Molecular point group: c1

    Geometry (in Angstrom), charge = 0, multiplicity = 1:

       Center              X                  Y                   Z               Mass
    ------------   -----------------  -----------------  -----------------  -----------------
         C            0.321531939855     0.813261460475     0.000000000000    12.000000000000
         C           -0.865048060145    -0.128168539525     0.000000000000    12.000000000000
         C            0.543531939855    -0.685078539525     0.000000000000    12.000000000000
         H            0.537951939855     1.360691460475    -0.920390000000     1.007825032230
         H            0.537951939855     1.360691460475     0.920390000000     1.007825032230
         H           -1.447418060145    -0.214488539525     0.919737951237     1.007825032230
         H           -1.447418060145    -0.214488539525    -0.920942048763     1.007825032230
         H            0.907830274543    -1.145679013968    -0.919767951237     1.007825032230
         H            0.910913605168    -1.146898065083     0.920972048763     1.007825032230

  Basis Set: CC-PVTZ
    Blend: CC-PVTZ
  Basis Set: (CC-PVTZ AUX)
    Blend: CC-PVTZ-JKFIT

  -Total Gradient:
     Atom            X                  Y                   Z
    ------   -----------------  -----------------  -----------------
       1        0.000577652245     0.001475833629     0.000003954365
       2       -0.001540750679    -0.000223736056     0.000418769251
       3        0.000984163367    -0.001230224604    -0.001172058047
       4        0.001329151014     0.003365816029    -0.007030072777
       5        0.001334362173     0.003378197752     0.007027953845
       6       -0.003428466171    -0.000533358004     0.006753251798
       7       -0.003760162383    -0.000538430452    -0.007285915416
       8        0.001901785112    -0.002502475897    -0.006381422880
       9        0.002601785151    -0.003187129805     0.007665601540

  Vibration                       7                   8                   9
  Freq [cm^-1]                 800.0501            800.1639            857.0136
  Irrep                          App                 App                  Ap
  Reduced mass [u]              1.0208              1.0209              4.2462
  Force const [mDyne/A]         0.3850              0.3851              1.8375

  Vibration                       10                  11                  12
  Freq [cm^-1]                 859.1196            909.6403           1086.6861
  Irrep                           Ap                 App                  Ap
  Reduced mass [u]              4.2755              1.0441              1.2136
  Force const [mDyne/A]         1.8593              0.5090              0.8444

  Vibration                       13                  14                  15
  Freq [cm^-1]                1089.4484           1124.3041           1179.6175
  Irrep                           Ap                  Ap                 App
  Reduced mass [u]              1.2170              1.4256              1.0078
  Force const [mDyne/A]         0.8511              1.0617              0.8263

  Vibration                       16                  17                  18
  Freq [cm^-1]                1183.2108           1231.9245           1232.0067
  Irrep                           Ap                 App                 App
  Reduced mass [u]              3.0092              1.4513              1.4513
  Force const [mDyne/A]         2.4821              1.2977              1.2979

  Vibration                       19                  20                  21
  Freq [cm^-1]                1488.2605           1488.5031           1526.4737
  Irrep                           Ap                  Ap                  Ap
  Reduced mass [u]              1.0881              1.0885              1.2610
  Force const [mDyne/A]         1.4200              1.4209              1.7313

  Vibration                       22                  23                  24
  Freq [cm^-1]                3021.9793           3022.0467           3028.6985
  Irrep                           Ap                  Ap                  Ap
  Reduced mass [u]              1.0494              1.0495              1.0609
  Force const [mDyne/A]         5.6464              5.6471              5.7337

  Vibration                       25                  26                  27
  Freq [cm^-1]                3093.7529           3093.7785           3115.8042
  Irrep                          App                 App                 App
  Reduced mass [u]              1.1204              1.1204              1.1161
  Force const [mDyne/A]         6.3183              6.3185              6.3838

  ==> Thermochemistry Components <==

  Entropy, S
    Electronic S            0.000 [cal/(mol K)]        0.000 [J/(mol K)]       0.00000000 [mEh/K] (multiplicity = 1)
    Translational S        37.135 [cal/(mol K)]      155.375 [J/(mol K)]       0.05917914 [mEh/K] (mol. weight = 42.0470 [u], P = 101325.00 [Pa])
    Rotational S           21.699 [cal/(mol K)]       90.789 [J/(mol K)]       0.03457982 [mEh/K] (symmetry no. = 1)
    Vibrational S           1.263 [cal/(mol K)]        5.285 [J/(mol K)]       0.00201281 [mEh/K]
  Total S                  60.098 [cal/(mol K)]      251.449 [J/(mol K)]       0.09577177 [mEh/K]
  Correction S              0.000 [cal/(mol K)]        0.000 [J/(mol K)]       0.00000000 [mEh/K]

  Constant volume heat capacity, Cv
    Electronic Cv           0.000 [cal/(mol K)]        0.000 [J/(mol K)]       0.00000000 [mEh/K]
    Translational Cv        2.981 [cal/(mol K)]       12.472 [J/(mol K)]       0.00475022 [mEh/K]
    Rotational Cv           2.981 [cal/(mol K)]       12.472 [J/(mol K)]       0.00475022 [mEh/K]
    Vibrational Cv          4.778 [cal/(mol K)]       19.991 [J/(mol K)]       0.00761417 [mEh/K]
  Total Cv                 10.740 [cal/(mol K)]       44.934 [J/(mol K)]       0.01711460 [mEh/K]
  Correction Cv             0.000 [cal/(mol K)]        0.000 [J/(mol K)]       0.00000000 [mEh/K]

  Constant pressure heat capacity, Cp
    Electronic Cp           0.000 [cal/(mol K)]        0.000 [J/(mol K)]       0.00000000 [mEh/K]
    Translational Cp        4.968 [cal/(mol K)]       20.786 [J/(mol K)]       0.00791703 [mEh/K]
    Rotational Cp           2.981 [cal/(mol K)]       12.472 [J/(mol K)]       0.00475022 [mEh/K]
    Vibrational Cp          4.778 [cal/(mol K)]       19.991 [J/(mol K)]       0.00761417 [mEh/K]
  Total Cp                 12.727 [cal/(mol K)]       53.249 [J/(mol K)]       0.02028141 [mEh/K]
  Correction Cp             0.000 [cal/(mol K)]        0.000 [J/(mol K)]       0.00000000 [mEh/K]

  ==> Thermochemistry Energy Analysis <==

  Raw electronic energy, E0
  Total E0, Electronic energy at well bottom at 0 [K]                 -117.94199502 [Eh]

  Zero-point energy, ZPE_vib = Sum_i nu_i / 2
    Electronic ZPE          0.000 [kcal/mol]        0.000 [kJ/mol]       0.00000000 [Eh]
    Translational ZPE       0.000 [kcal/mol]        0.000 [kJ/mol]       0.00000000 [Eh]
    Rotational ZPE          0.000 [kcal/mol]        0.000 [kJ/mol]       0.00000000 [Eh]
    Vibrational ZPE        50.367 [kcal/mol]      210.737 [kJ/mol]       0.08026550 [Eh]       17616.241 [cm^-1]
  Correction ZPE           50.367 [kcal/mol]      210.737 [kJ/mol]       0.08026550 [Eh]       17616.241 [cm^-1]
  Total ZPE, Electronic energy at 0 [K]                               -117.86172952 [Eh]

  Thermal Energy, E (includes ZPE)
    Electronic E            0.000 [kcal/mol]        0.000 [kJ/mol]       0.00000000 [Eh]
    Translational E         0.889 [kcal/mol]        3.718 [kJ/mol]       0.00141628 [Eh]
    Rotational E            0.889 [kcal/mol]        3.718 [kJ/mol]       0.00141628 [Eh]
    Vibrational E          50.675 [kcal/mol]      212.025 [kJ/mol]       0.08075598 [Eh]
  Correction E             52.453 [kcal/mol]      219.462 [kJ/mol]       0.08358853 [Eh]
  Total E, Electronic energy at  298.15 [K]                           -117.85840649 [Eh]

  Enthalpy, H_trans = E_trans + k_B * T
    Electronic H            0.000 [kcal/mol]        0.000 [kJ/mol]       0.00000000 [Eh]
    Translational H         1.481 [kcal/mol]        6.197 [kJ/mol]       0.00236046 [Eh]
    Rotational H            0.889 [kcal/mol]        3.718 [kJ/mol]       0.00141628 [Eh]
    Vibrational H          50.675 [kcal/mol]      212.025 [kJ/mol]       0.08075598 [Eh]
  Correction H             53.045 [kcal/mol]      221.941 [kJ/mol]       0.08453272 [Eh]
  Total H, Enthalpy at  298.15 [K]                                    -117.85746231 [Eh]

  Gibbs free energy, G = H - T * S
    Electronic G            0.000 [kcal/mol]        0.000 [kJ/mol]       0.00000000 [Eh]
    Translational G        -9.591 [kcal/mol]      -40.128 [kJ/mol]      -0.01528380 [Eh]
    Rotational G           -5.581 [kcal/mol]      -23.350 [kJ/mol]      -0.00889370 [Eh]
    Vibrational G          50.299 [kcal/mol]      210.449 [kJ/mol]       0.08015586 [Eh]
  Correction G             35.127 [kcal/mol]      146.971 [kJ/mol]       0.05597836 [Eh]
  Total G, Free enthalpy at  298.15 [K]                               -117.88601666 [Eh]

*** Psi4 exiting successfully. Buy a developer a beer!
