                               Psi4 1.3.2 release

  ==> Input File <==

--------------------------------------------------------------------------
set basis  6-31G
molecule {
0 1
   O        0.00000        0.00000       -0.06797
   H        0.74903        0.00000        0.53936
   H       -0.74903        0.00000        0.53936
}
energy('scf')
frequencies('scf')

--------------------------------------------------------------------------

    Molecular point group: c2v
  Charge       = 0
  Multiplicity = 1
  Basis Set: 6-31G
    Blend: 6-31G
  Basis Set: (6-31G AUX)
    Blend: CC-PVDZ-JKFIT
  @DF-RHF Final Energy:   -75.98265212527036
    Total Energy =                        -75.9826521252703628
    Molecular point group: c2v
  Basis Set: 6-31G
    Blend: 6-31G
  Basis Set: (6-31G AUX)
    Blend: CC-PVDZ-JKFIT
  @DF-RHF Final Energy:   -75.98265212528469
    Total Energy =                        -75.9826521252846874
  Basis Set: 6-31G
    Blend: 6-31G
  Basis Set: (6-31G AUX)
    Blend: CC-PVDZ-JKFIT

  -Total Gradient:
     Atom            X                  Y                   Z
    ------   -----------------  -----------------  -----------------
       1        0.000000000000    -0.000000000000    -0.036356678275
       2       -0.003619697445    -0.000000000000     0.018178339137
       3        0.003619697445     0.000000000000     0.018178339137

  Charge       = 0
  Multiplicity = 1
  Basis Set: 6-31G
    Blend: 6-31G
  Basis Set: (6-31G AUX)
    Blend: CC-PVDZ-JKFIT

    Orbital Energies [Eh]
    ---------------------

    Doubly Occupied:

       1A1   -20.563711     2A1    -1.355547     1B1    -0.701679
       3A1    -0.564605     1B2    -0.502273

  @DF-RHF Final Energy:   -75.98265212528469

   => Energetics <=

    Nuclear Repulsion Energy =              9.1334334609951409
    One-Electron Energy =                -122.8565411334631250
    Two-Electron Energy =                  37.7404555471833092
    Total Energy =                        -75.9826521252846874

  Dipole Moment: [D]
     X:     0.0000      Y:     0.0000      Z:     2.6761     Total:     2.6761

    Molecular point group: c2v
  Basis Set: 6-31G
    Blend: 6-31G
  Basis Set: (6-31G AUX)
    Blend: CC-PVDZ-JKFIT
  Basis Set: (6-31G AUX)
    Blend: CC-PVDZ-JKFIT
    Molecular point group: c2v

    Geometry (in Angstrom), charge = 0, multiplicity = 1:

       Center              X                  Y                   Z               Mass
    ------------   -----------------  -----------------  -----------------  -----------------
         O            0.000000000000     0.000000000000    -0.067969259994    15.994914619570
         H            0.749030000000     0.000000000000     0.539360740006     1.007825032230
         H           -0.749030000000    -0.000000000000     0.539360740006     1.007825032230

  Basis Set: 6-31G
    Blend: 6-31G
  Basis Set: (6-31G AUX)
    Blend: CC-PVDZ-JKFIT

  Vibration                       1                   5                   6
  Freq [cm^-1]                258.9398i            354.4531            683.8325
  Irrep                           A2                  B1                  B2
  Reduced mass [u]              1.0078              1.0465              1.1259
  Force const [mDyne/A]        -0.0398              0.0775              0.3102

  IR activ [km/mol]             0.0000             167.1068            458.3328

  Vibration                       7                   8                   9
  Freq [cm^-1]                1855.7851           3829.7849           3900.6713
  Irrep                           A1                  A1                  B1
  Reduced mass [u]              1.0867              1.0414              1.0813
  Force const [mDyne/A]         2.2050              8.9998              9.6932

  IR activ [km/mol]            89.2901              1.1861             18.3203

  ==> Thermochemistry Components <==

  Entropy, S
    Electronic S            0.000 [cal/(mol K)]        0.000 [J/(mol K)]       0.00000000 [mEh/K] (multiplicity = 1)
    Translational S        34.608 [cal/(mol K)]      144.801 [J/(mol K)]       0.05515177 [mEh/K] (mol. weight = 18.0106 [u], P = 101325.00 [Pa])
    Rotational S           10.508 [cal/(mol K)]       43.968 [J/(mol K)]       0.01674635 [mEh/K] (symmetry no. = 2)
    Vibrational S           1.475 [cal/(mol K)]        6.170 [J/(mol K)]       0.00235010 [mEh/K]
  Total S                  46.591 [cal/(mol K)]      194.939 [J/(mol K)]       0.07424823 [mEh/K]
  Correction S              0.000 [cal/(mol K)]        0.000 [J/(mol K)]       0.00000000 [mEh/K]

  Constant volume heat capacity, Cv
    Electronic Cv           0.000 [cal/(mol K)]        0.000 [J/(mol K)]       0.00000000 [mEh/K]
    Translational Cv        2.981 [cal/(mol K)]       12.472 [J/(mol K)]       0.00475022 [mEh/K]
    Rotational Cv           2.981 [cal/(mol K)]       12.472 [J/(mol K)]       0.00475022 [mEh/K]
    Vibrational Cv          2.447 [cal/(mol K)]       10.239 [J/(mol K)]       0.00389985 [mEh/K]
  Total Cv                  8.409 [cal/(mol K)]       35.182 [J/(mol K)]       0.01340028 [mEh/K]
  Correction Cv             0.000 [cal/(mol K)]        0.000 [J/(mol K)]       0.00000000 [mEh/K]

  Constant pressure heat capacity, Cp
    Electronic Cp           0.000 [cal/(mol K)]        0.000 [J/(mol K)]       0.00000000 [mEh/K]
    Translational Cp        4.968 [cal/(mol K)]       20.786 [J/(mol K)]       0.00791703 [mEh/K]
    Rotational Cp           2.981 [cal/(mol K)]       12.472 [J/(mol K)]       0.00475022 [mEh/K]
    Vibrational Cp          2.447 [cal/(mol K)]       10.239 [J/(mol K)]       0.00389985 [mEh/K]
  Total Cp                 10.396 [cal/(mol K)]       43.497 [J/(mol K)]       0.01656710 [mEh/K]
  Correction Cp             0.000 [cal/(mol K)]        0.000 [J/(mol K)]       0.00000000 [mEh/K]

  ==> Thermochemistry Energy Analysis <==

  Raw electronic energy, E0
  Total E0, Electronic energy at well bottom at 0 [K]                  -75.98265213 [Eh]

  Zero-point energy, ZPE_vib = Sum_i nu_i / 2
    Electronic ZPE          0.000 [kcal/mol]        0.000 [kJ/mol]       0.00000000 [Eh]
    Translational ZPE       0.000 [kcal/mol]        0.000 [kJ/mol]       0.00000000 [Eh]
    Rotational ZPE          0.000 [kcal/mol]        0.000 [kJ/mol]       0.00000000 [Eh]
    Vibrational ZPE        15.189 [kcal/mol]       63.549 [kJ/mol]       0.02420445 [Eh]        5312.263 [cm^-1]
  Correction ZPE           15.189 [kcal/mol]       63.549 [kJ/mol]       0.02420445 [Eh]        5312.263 [cm^-1]
  Total ZPE, Electronic energy at 0 [K]                                -75.95844767 [Eh]

  Thermal Energy, E (includes ZPE)
    Electronic E            0.000 [kcal/mol]        0.000 [kJ/mol]       0.00000000 [Eh]
    Translational E         0.889 [kcal/mol]        3.718 [kJ/mol]       0.00141628 [Eh]
    Rotational E            0.889 [kcal/mol]        3.718 [kJ/mol]       0.00141628 [Eh]
    Vibrational E          15.488 [kcal/mol]       64.801 [kJ/mol]       0.02468126 [Eh]
  Correction E             17.265 [kcal/mol]       72.238 [kJ/mol]       0.02751381 [Eh]
  Total E, Electronic energy at  298.15 [K]                            -75.95513831 [Eh]

  Enthalpy, H_trans = E_trans + k_B * T
    Electronic H            0.000 [kcal/mol]        0.000 [kJ/mol]       0.00000000 [Eh]
    Translational H         1.481 [kcal/mol]        6.197 [kJ/mol]       0.00236046 [Eh]
    Rotational H            0.889 [kcal/mol]        3.718 [kJ/mol]       0.00141628 [Eh]
    Vibrational H          15.488 [kcal/mol]       64.801 [kJ/mol]       0.02468126 [Eh]
  Correction H             17.858 [kcal/mol]       74.716 [kJ/mol]       0.02845800 [Eh]
  Total H, Enthalpy at  298.15 [K]                                     -75.95419413 [Eh]

  Gibbs free energy, G = H - T * S
    Electronic G            0.000 [kcal/mol]        0.000 [kJ/mol]       0.00000000 [Eh]
    Translational G        -8.837 [kcal/mol]      -36.975 [kJ/mol]      -0.01408304 [Eh]
    Rotational G           -2.244 [kcal/mol]       -9.390 [kJ/mol]      -0.00357665 [Eh]
    Vibrational G          15.048 [kcal/mol]       62.961 [kJ/mol]       0.02398057 [Eh]
  Correction G              3.966 [kcal/mol]       16.595 [kJ/mol]       0.00632089 [Eh]
  Total G, Free enthalpy at  298.15 [K]                                -75.97633124 [Eh]

*** Psi4 exiting successfully. Buy a developer a beer!
