                               Psi4 1.3.2 release

  ==> Input File <==

--------------------------------------------------------------------------
set basis  cc-pVTZ
molecule {
0 1
   O        0.00000        0.00000        0.49152
   C        0.00000        0.00000       -0.65516
}
energy('scf')
frequencies('scf')
--------------------------------------------------------------------------

    Molecular point group: c2v
  Charge       = 0
  Multiplicity = 1
  Basis Set: CC-PVTZ
    Blend: CC-PVTZ
  Basis Set: (CC-PVTZ AUX)
    Blend: CC-PVTZ-JKFIT
  @DF-RHF Final Energy:  -112.77726368210749
    Total Energy =                       -112.7772636821074883
    Molecular point group: c2v
  Basis Set: CC-PVTZ
    Blend: CC-PVTZ
  Basis Set: (CC-PVTZ AUX)
    Blend: CC-PVTZ-JKFIT
  @DF-RHF Final Energy:  -112.77726368223206
    Total Energy =                       -112.7772636822320607
  Basis Set: CC-PVTZ
    Blend: CC-PVTZ
  Basis Set: (CC-PVTZ AUX)
    Blend: CC-PVTZ-JKFIT

  -Total Gradient:
     Atom            X                  Y                   Z
    ------   -----------------  -----------------  -----------------
       1        0.000000000000     0.000000000000     0.105573135806
       2        0.000000000000    -0.000000000000    -0.105573135805

  Charge       = 0
  Multiplicity = 1
  Basis Set: CC-PVTZ
    Blend: CC-PVTZ
  Basis Set: (CC-PVTZ AUX)
    Blend: CC-PVTZ-JKFIT

    Orbital Energies [Eh]
    ---------------------

    Doubly Occupied:

       1A1   -20.666447     2A1   -11.367935     3A1    -1.508587
       4A1    -0.801991     1B1    -0.631015     1B2    -0.631015
       5A1    -0.555628

  @DF-RHF Final Energy:  -112.77726368223206

   => Energetics <=

    Nuclear Repulsion Energy =             22.1513465937837957
    One-Electron Energy =                -197.5319850554033394
    Two-Electron Energy =                  62.6033747793874937
    Total Energy =                       -112.7772636822320607

  Dipole Moment: [D]
     X:     0.0000      Y:     0.0000      Z:    -0.3360     Total:     0.3360

    Molecular point group: c2v
  Basis Set: CC-PVTZ
    Blend: CC-PVTZ
  Basis Set: (CC-PVTZ AUX)
    Blend: CC-PVTZ-JKFIT
  Basis Set: (CC-PVTZ AUX)
    Blend: CC-PVTZ-JKFIT
    Molecular point group: c2v

    Geometry (in Angstrom), charge = 0, multiplicity = 1:

       Center              X                  Y                   Z               Mass
    ------------   -----------------  -----------------  -----------------  -----------------
         O            0.000000000000     0.000000000000     0.491523556581    15.994914619570
         C            0.000000000000     0.000000000000    -0.655156443419    12.000000000000

  Basis Set: CC-PVTZ
    Blend: CC-PVTZ
  Basis Set: (CC-PVTZ AUX)
    Blend: CC-PVTZ-JKFIT

  Vibration                       4                   5                   6
  Freq [cm^-1]                 433.3297            433.3297           2097.5994
  Irrep                                                                   A1
  Reduced mass [u]             13.4388             13.4388             13.4388
  Force const [mDyne/A]         1.4868              1.4868             34.8381

  IR activ [km/mol]             0.5292              0.5292             149.1543

  ==> Thermochemistry Components <==

  Entropy, S
    Electronic S            0.000 [cal/(mol K)]        0.000 [J/(mol K)]       0.00000000 [mEh/K] (multiplicity = 1)
    Translational S        35.923 [cal/(mol K)]      150.302 [J/(mol K)]       0.05724692 [mEh/K] (mol. weight = 27.9949 [u], P = 101325.00 [Pa])
    Rotational S           11.343 [cal/(mol K)]       47.458 [J/(mol K)]       0.01807582 [mEh/K] (symmetry no. = 1)
    Vibrational S           1.697 [cal/(mol K)]        7.098 [J/(mol K)]       0.00270366 [mEh/K]
  Total S                  48.962 [cal/(mol K)]      204.858 [J/(mol K)]       0.07802641 [mEh/K]
  Correction S              0.000 [cal/(mol K)]        0.000 [J/(mol K)]       0.00000000 [mEh/K]

  Constant volume heat capacity, Cv
    Electronic Cv           0.000 [cal/(mol K)]        0.000 [J/(mol K)]       0.00000000 [mEh/K]
    Translational Cv        2.981 [cal/(mol K)]       12.472 [J/(mol K)]       0.00475022 [mEh/K]
    Rotational Cv           1.987 [cal/(mol K)]        8.314 [J/(mol K)]       0.00316681 [mEh/K]
    Vibrational Cv          2.803 [cal/(mol K)]       11.729 [J/(mol K)]       0.00446748 [mEh/K]
  Total Cv                  7.771 [cal/(mol K)]       32.516 [J/(mol K)]       0.01238451 [mEh/K]
  Correction Cv             0.000 [cal/(mol K)]        0.000 [J/(mol K)]       0.00000000 [mEh/K]

  Constant pressure heat capacity, Cp
    Electronic Cp           0.000 [cal/(mol K)]        0.000 [J/(mol K)]       0.00000000 [mEh/K]
    Translational Cp        4.968 [cal/(mol K)]       20.786 [J/(mol K)]       0.00791703 [mEh/K]
    Rotational Cp           1.987 [cal/(mol K)]        8.314 [J/(mol K)]       0.00316681 [mEh/K]
    Vibrational Cp          2.803 [cal/(mol K)]       11.729 [J/(mol K)]       0.00446748 [mEh/K]
  Total Cp                  9.759 [cal/(mol K)]       40.830 [J/(mol K)]       0.01555132 [mEh/K]
  Correction Cp             0.000 [cal/(mol K)]        0.000 [J/(mol K)]       0.00000000 [mEh/K]

  ==> Thermochemistry Energy Analysis <==

  Raw electronic energy, E0
  Total E0, Electronic energy at well bottom at 0 [K]                 -112.77726368 [Eh]

  Zero-point energy, ZPE_vib = Sum_i nu_i / 2
    Electronic ZPE          0.000 [kcal/mol]        0.000 [kJ/mol]       0.00000000 [Eh]
    Translational ZPE       0.000 [kcal/mol]        0.000 [kJ/mol]       0.00000000 [Eh]
    Rotational ZPE          0.000 [kcal/mol]        0.000 [kJ/mol]       0.00000000 [Eh]
    Vibrational ZPE         4.238 [kcal/mol]       17.730 [kJ/mol]       0.00675308 [Eh]        1482.129 [cm^-1]
  Correction ZPE            4.238 [kcal/mol]       17.730 [kJ/mol]       0.00675308 [Eh]        1482.129 [cm^-1]
  Total ZPE, Electronic energy at 0 [K]                               -112.77051060 [Eh]

  Thermal Energy, E (includes ZPE)
    Electronic E            0.000 [kcal/mol]        0.000 [kJ/mol]       0.00000000 [Eh]
    Translational E         0.889 [kcal/mol]        3.718 [kJ/mol]       0.00141628 [Eh]
    Rotational E            0.592 [kcal/mol]        2.479 [kJ/mol]       0.00094418 [Eh]
    Vibrational E           4.587 [kcal/mol]       19.193 [kJ/mol]       0.00731011 [Eh]
  Correction E              6.068 [kcal/mol]       25.390 [kJ/mol]       0.00967057 [Eh]
  Total E, Electronic energy at  298.15 [K]                           -112.76759311 [Eh]

  Enthalpy, H_trans = E_trans + k_B * T
    Electronic H            0.000 [kcal/mol]        0.000 [kJ/mol]       0.00000000 [Eh]
    Translational H         1.481 [kcal/mol]        6.197 [kJ/mol]       0.00236046 [Eh]
    Rotational H            0.592 [kcal/mol]        2.479 [kJ/mol]       0.00094418 [Eh]
    Vibrational H           4.587 [kcal/mol]       19.193 [kJ/mol]       0.00731011 [Eh]
  Correction H              6.661 [kcal/mol]       27.869 [kJ/mol]       0.01061475 [Eh]
  Total H, Enthalpy at  298.15 [K]                                    -112.76664893 [Eh]

  Gibbs free energy, G = H - T * S
    Electronic G            0.000 [kcal/mol]        0.000 [kJ/mol]       0.00000000 [Eh]
    Translational G        -9.229 [kcal/mol]      -38.615 [kJ/mol]      -0.01470771 [Eh]
    Rotational G           -2.789 [kcal/mol]      -11.671 [kJ/mol]      -0.00444512 [Eh]
    Vibrational G           4.081 [kcal/mol]       17.076 [kJ/mol]       0.00650401 [Eh]
  Correction G             -7.937 [kcal/mol]      -33.209 [kJ/mol]      -0.01264882 [Eh]
  Total G, Free enthalpy at  298.15 [K]                               -112.78991250 [Eh]

*** Psi4 exiting successfully. Buy a developer a beer!
