                               Psi4 1.3.2 release

  ==> Input File <==

--------------------------------------------------------------------------
set basis  6-31g
molecule {
0 1
   C       -0.61446        0.00000        0.00000
   C        0.61446        0.00000        0.00000
   H       -1.68923        0.00000        0.00000
   H        1.68923        0.00000        0.00000
}
energy('B3LYP')
frequencies('B3LYP')
--------------------------------------------------------------------------

    Molecular point group: d2h
  Charge       = 0
  Multiplicity = 1
  Basis Set: 6-31G
    Blend: 6-31G
  Basis Set: (6-31G AUX)
    Blend: CC-PVDZ-JKFIT
  @DF-RKS Final Energy:   -77.31123514118454
    Total Energy =                        -77.3112351411845538
    Molecular point group: d2h
  Basis Set: 6-31G
    Blend: 6-31G
  Basis Set: (6-31G AUX)
    Blend: CC-PVDZ-JKFIT
  @DF-RKS Final Energy:   -77.31123514118480
    Total Energy =                        -77.3112351411847953
  Basis Set: 6-31G
    Blend: 6-31G
  Basis Set: (6-31G AUX)
    Blend: CC-PVDZ-JKFIT
  Basis Set: 6-31G
    Blend: 6-31G
  Basis Set: (6-31G AUX)
    Blend: CC-PVDZ-JKFIT
  @DF-RKS Final Energy:   -77.31123514118480
    Total Energy =                        -77.3112351411847953
  Basis Set: 6-31G
  @DF-RKS Final Energy:   -77.31117467329598
    Total Energy =                        -77.3111746732959801
  @DF-RKS Final Energy:   -77.31129048729129
    Total Energy =                        -77.3112904872912878
  @DF-RKS Final Energy:   -77.31117795853507
    Total Energy =                        -77.3111779585350689
  @DF-RKS Final Energy:   -77.31128248308752
    Total Energy =                        -77.3112824830875240
  @DF-RKS Final Energy:   -77.31123503763577
    Total Energy =                        -77.3112350376357824
  @DF-RKS Final Energy:   -77.31123498925798
    Total Energy =                        -77.3112349892579829
  @DF-RKS Final Energy:   -77.31123503770193
    Total Energy =                        -77.3112350377019197
  @DF-RKS Final Energy:   -77.31123498931164
    Total Energy =                        -77.3112349893116431
  @DF-RKS Final Energy:   -77.31123481340643
    Total Energy =                        -77.3112348134064291
  Basis Set: (6-31G AUX)
    Blend: CC-PVDZ-JKFIT
  Basis Set: 6-31G
    Blend: 6-31G
  Basis Set: (6-31G AUX)
    Blend: CC-PVDZ-JKFIT
  @DF-RKS Final Energy:   -77.31123481340184
    Total Energy =                        -77.3112348134018532
  Basis Set: 6-31G
    Blend: 6-31G
  Basis Set: (6-31G AUX)
    Blend: CC-PVDZ-JKFIT
    Molecular point group: c2v
  Charge       = 0
  Multiplicity = 1
  Basis Set: 6-31G
    Blend: 6-31G
  Basis Set: (6-31G AUX)
    Blend: CC-PVDZ-JKFIT

    Orbital Energies [Eh]
    ---------------------

    Doubly Occupied:

       1A1   -10.196027     2A1   -10.194078     3A1    -0.746072
       4A1    -0.564552     5A1    -0.493067     1B2    -0.282600
       1B1    -0.282600

  @DF-RKS Final Energy:   -77.31122981862423

   => Energetics <=

    Nuclear Repulsion Energy =             24.3232393838559098
    One-Electron Energy =                -151.0645984557897066
    Two-Electron Energy =                  58.7157942712759890
    DFT Exchange-Correlation Energy =      -9.2856650179664033
    Empirical Dispersion Energy =           0.0000000000000000
    VV10 Nonlocal Energy =                  0.0000000000000000
    Total Energy =                        -77.3112298186242128

  Dipole Moment: [D]
     X:     0.0037      Y:     0.0000      Z:     0.0000     Total:     0.0037

    Molecular point group: c2v

    Geometry (in Angstrom), charge = 0, multiplicity = 1:

       Center              X                  Y                   Z               Mass
    ------------   -----------------  -----------------  -----------------  -----------------
         C           -0.614610333491     0.000000000000     0.000000000000    12.000000000000
         C            0.614309666509     0.000000000000     0.000000000000    12.000000000000
         H           -1.687440004874     0.000000000000     0.000000000000     1.007825032230
         H            1.691019995126     0.000000000000     0.000000000000     1.007825032230

  Basis Set: 6-31G
    Blend: 6-31G
  Basis Set: (6-31G AUX)
    Blend: CC-PVDZ-JKFIT

  -Total Gradient:
     Atom            X                  Y                   Z
    ------   -----------------  -----------------  -----------------
       1       -0.029829319858     0.000000000000     0.000000000000
       2        0.026926111744     0.000000000000     0.000000000000
       3       -0.005962220722     0.000000000000     0.000000000000
       4        0.008865457310     0.000000000000     0.000000000000

  Vibration                       4                   5                   6
  Freq [cm^-1]                 237.8136            237.8140            695.4140
  Irrep                          B1g                 B2g                 B1g
  Reduced mass [u]              2.3318              2.3318              1.5463
  Force const [mDyne/A]         0.0777              0.0777              0.4406

  Vibration                       7                   8                   9
  Freq [cm^-1]                 695.4142            832.4540            832.4540
  Irrep                          B2g                 B2u                 B1u
  Reduced mass [u]              1.5463              1.0848              1.0848
  Force const [mDyne/A]         0.4406              0.4429              0.4429

  Vibration                       10                  11                  12
  Freq [cm^-1]                1970.9258           3354.3811           3454.0844
  Irrep                           Ag                 B3u                  Ag
  Reduced mass [u]              3.9053              1.0848              1.2202
  Force const [mDyne/A]         8.9380              7.1917              8.5776

  ==> Thermochemistry Components <==

  Entropy, S
    Electronic S            0.000 [cal/(mol K)]        0.000 [J/(mol K)]       0.00000000 [mEh/K] (multiplicity = 1)
    Translational S        35.704 [cal/(mol K)]      149.387 [J/(mol K)]       0.05689862 [mEh/K] (mol. weight = 26.0157 [u], P = 101325.00 [Pa])
    Rotational S           10.952 [cal/(mol K)]       45.824 [J/(mol K)]       0.01745345 [mEh/K] (symmetry no. = 2)
    Vibrational S           4.628 [cal/(mol K)]       19.363 [J/(mol K)]       0.00737511 [mEh/K]
  Total S                  51.285 [cal/(mol K)]      214.575 [J/(mol K)]       0.08172718 [mEh/K]
  Correction S              0.000 [cal/(mol K)]        0.000 [J/(mol K)]       0.00000000 [mEh/K]

  Constant volume heat capacity, Cv
    Electronic Cv           0.000 [cal/(mol K)]        0.000 [J/(mol K)]       0.00000000 [mEh/K]
    Translational Cv        2.981 [cal/(mol K)]       12.472 [J/(mol K)]       0.00475022 [mEh/K]
    Rotational Cv           1.987 [cal/(mol K)]        8.314 [J/(mol K)]       0.00316681 [mEh/K]
    Vibrational Cv          6.452 [cal/(mol K)]       26.997 [J/(mol K)]       0.01028256 [mEh/K]
  Total Cv                 11.420 [cal/(mol K)]       47.783 [J/(mol K)]       0.01819958 [mEh/K]
  Correction Cv             0.000 [cal/(mol K)]        0.000 [J/(mol K)]       0.00000000 [mEh/K]

  Constant pressure heat capacity, Cp
    Electronic Cp           0.000 [cal/(mol K)]        0.000 [J/(mol K)]       0.00000000 [mEh/K]
    Translational Cp        4.968 [cal/(mol K)]       20.786 [J/(mol K)]       0.00791703 [mEh/K]
    Rotational Cp           1.987 [cal/(mol K)]        8.314 [J/(mol K)]       0.00316681 [mEh/K]
    Vibrational Cp          6.452 [cal/(mol K)]       26.997 [J/(mol K)]       0.01028256 [mEh/K]
  Total Cp                 13.408 [cal/(mol K)]       56.097 [J/(mol K)]       0.02136639 [mEh/K]
  Correction Cp             0.000 [cal/(mol K)]        0.000 [J/(mol K)]       0.00000000 [mEh/K]

  ==> Thermochemistry Energy Analysis <==

  Raw electronic energy, E0
  Total E0, Electronic energy at well bottom at 0 [K]                  -77.31123514 [Eh]

  Zero-point energy, ZPE_vib = Sum_i nu_i / 2
    Electronic ZPE          0.000 [kcal/mol]        0.000 [kJ/mol]       0.00000000 [Eh]
    Translational ZPE       0.000 [kcal/mol]        0.000 [kJ/mol]       0.00000000 [Eh]
    Rotational ZPE          0.000 [kcal/mol]        0.000 [kJ/mol]       0.00000000 [Eh]
    Vibrational ZPE        17.599 [kcal/mol]       73.635 [kJ/mol]       0.02804596 [Eh]        6155.377 [cm^-1]
  Correction ZPE           17.599 [kcal/mol]       73.635 [kJ/mol]       0.02804596 [Eh]        6155.377 [cm^-1]
  Total ZPE, Electronic energy at 0 [K]                                -77.28318918 [Eh]

  Thermal Energy, E (includes ZPE)
    Electronic E            0.000 [kcal/mol]        0.000 [kJ/mol]       0.00000000 [Eh]
    Translational E         0.889 [kcal/mol]        3.718 [kJ/mol]       0.00141628 [Eh]
    Rotational E            0.592 [kcal/mol]        2.479 [kJ/mol]       0.00094418 [Eh]
    Vibrational E          18.463 [kcal/mol]       77.248 [kJ/mol]       0.02942239 [Eh]
  Correction E             19.944 [kcal/mol]       83.446 [kJ/mol]       0.03178285 [Eh]
  Total E, Electronic energy at  298.15 [K]                            -77.27945229 [Eh]

  Enthalpy, H_trans = E_trans + k_B * T
    Electronic H            0.000 [kcal/mol]        0.000 [kJ/mol]       0.00000000 [Eh]
    Translational H         1.481 [kcal/mol]        6.197 [kJ/mol]       0.00236046 [Eh]
    Rotational H            0.592 [kcal/mol]        2.479 [kJ/mol]       0.00094418 [Eh]
    Vibrational H          18.463 [kcal/mol]       77.248 [kJ/mol]       0.02942239 [Eh]
  Correction H             20.537 [kcal/mol]       85.925 [kJ/mol]       0.03272703 [Eh]
  Total H, Enthalpy at  298.15 [K]                                     -77.27850811 [Eh]

  Gibbs free energy, G = H - T * S
    Electronic G            0.000 [kcal/mol]        0.000 [kJ/mol]       0.00000000 [Eh]
    Translational G        -9.164 [kcal/mol]      -38.342 [kJ/mol]      -0.01460386 [Eh]
    Rotational G           -2.673 [kcal/mol]      -11.183 [kJ/mol]      -0.00425956 [Eh]
    Vibrational G          17.083 [kcal/mol]       71.475 [kJ/mol]       0.02722350 [Eh]
  Correction G              5.246 [kcal/mol]       21.949 [kJ/mol]       0.00836007 [Eh]
  Total G, Free enthalpy at  298.15 [K]                                -77.30287507 [Eh]

*** Psi4 exiting successfully. Buy a developer a beer!
