                               Psi4 1.3.2 release

  ==> Input File <==

--------------------------------------------------------------------------
set basis  aug-cc-pVDZ
molecule {
0 1
   C       -1.22151       -0.69325        0.00000
   C       -1.21114        0.71122        0.00000
   C       -0.01037       -1.40452        0.00000
   C        0.01037        1.40452        0.00000
   C        1.21114       -0.71122        0.00000
   C        1.22151        0.69325        0.00000
   H       -2.17311       -1.23332        0.00000
   H       -2.15464        1.26533        0.00000
   H       -0.01848       -2.49865        0.00000
   H        0.01848        2.49865        0.00000
   H        2.15464       -1.26533        0.00000
   H        2.17311        1.23332        0.00000
}
energy('MP2')
frequencies('MP2')
--------------------------------------------------------------------------

    Molecular point group: c2h
  Charge       = 0
  Multiplicity = 1
  Basis Set: AUG-CC-PVDZ
    Blend: AUG-CC-PVDZ
  Basis Set: (AUG-CC-PVDZ AUX)
    Blend: AUG-CC-PVDZ-JKFIT
  @DF-RHF Final Energy:  -230.72587859243626
    Total Energy =                       -230.7258785924362314
  Basis Set: (AUG-CC-PVDZ AUX)
    Blend: AUG-CC-PVDZ-RI
	 Reference Energy          =    -230.7258785924362599 [Eh]
	 Singles Energy            =      -0.0000000000000000 [Eh]
	 Same-Spin Energy          =      -0.2183581015098892 [Eh]
	 Opposite-Spin Energy      =      -0.6123648218944018 [Eh]
	 Correlation Energy        =      -0.8307229234042910 [Eh]
	 Total Energy              =    -231.5566015158405548 [Eh]
	 SCS Total Energy          =    -231.5335024125461700 [Eh]
    Molecular point group: c2h
  Basis Set: AUG-CC-PVDZ
    Blend: AUG-CC-PVDZ
  Basis Set: (AUG-CC-PVDZ AUX)
    Blend: AUG-CC-PVDZ-JKFIT
  @DF-RHF Final Energy:  -230.72587859005790
    Total Energy =                       -230.7258785900579028
  Basis Set: (AUG-CC-PVDZ AUX)
  @DF-RHF Final Energy:  -230.72587858766448
    Total Energy =                       -230.7258785876644538
  @DF-RHF Final Energy:  -230.72586684314530
    Total Energy =                       -230.7258668431452975
  @DF-RHF Final Energy:  -230.72588856937844
    Total Energy =                       -230.7258885693784691
  @DF-RHF Final Energy:  -230.72587231871154
    Total Energy =                       -230.7258723187115379
  @DF-RHF Final Energy:  -230.72588273312590
    Total Energy =                       -230.7258827331258999
  @DF-RHF Final Energy:  -230.72586671087291
    Total Energy =                       -230.7258667108728787
  @DF-RHF Final Energy:  -230.72588855290599
    Total Energy =                       -230.7258885529059853
  @DF-RHF Final Energy:  -230.72588267496047
    Total Energy =                       -230.7258826749604737
  @DF-RHF Final Energy:  -230.72587255296577
    Total Energy =                       -230.7258725529657681
  @DF-RHF Final Energy:  -230.72587742773618
    Total Energy =                       -230.7258774277361795
  @DF-RHF Final Energy:  -230.72587761449773
    Total Energy =                       -230.7258776144977332
  @DF-RHF Final Energy:  -230.72586562716873
    Total Energy =                       -230.7258656271687300
  @DF-RHF Final Energy:  -230.72588990758925
    Total Energy =                       -230.7258899075892487
  @DF-RHF Final Energy:  -230.72581155639017
    Total Energy =                       -230.7258115563901697
  @DF-RHF Final Energy:  -230.72593786283619
    Total Energy =                       -230.7259378628361901
  @DF-RHF Final Energy:  -230.72584777751860
    Total Energy =                       -230.7258477775185952
  @DF-RHF Final Energy:  -230.72590639206172
    Total Energy =                       -230.7259063920617450
  @DF-RHF Final Energy:  -230.72581028711144
    Total Energy =                       -230.7258102871114716
  @DF-RHF Final Energy:  -230.72594361609697
    Total Energy =                       -230.7259436160969699
  @DF-RHF Final Energy:  -230.72587822471803
    Total Energy =                       -230.7258782247180307
  @DF-RHF Final Energy:  -230.72587815178412
    Total Energy =                       -230.7258781517841157
  @DF-RHF Final Energy:  -230.72587813560057
    Total Energy =                       -230.7258781356005670
  @DF-RHF Final Energy:  -230.72587805552951
    Total Energy =                       -230.7258780555295061
  @DF-RHF Final Energy:  -230.72587834961647
    Total Energy =                       -230.7258783496164938
  @DF-RHF Final Energy:  -230.72587833813043
    Total Energy =                       -230.7258783381304283
  @DF-RHF Final Energy:  -230.72587827620146
    Total Energy =                       -230.7258782762014562
  @DF-RHF Final Energy:  -230.72587813288922
    Total Energy =                       -230.7258781328891928
  @DF-RHF Final Energy:  -230.72587813464713
    Total Energy =                       -230.7258781346471324
  @DF-RHF Final Energy:  -230.72587749827500
    Total Energy =                       -230.7258774982749969
  @DF-RHF Final Energy:  -230.72587767121991
    Total Energy =                       -230.7258776712199051
  @DF-RHF Final Energy:  -230.72587733792722
    Total Energy =                       -230.7258773379272156
  @DF-RHF Final Energy:  -230.72587758922552
    Total Energy =                       -230.7258775892255471
  @DF-RHF Final Energy:  -230.72587613454544
    Total Energy =                       -230.7258761345454445
  @DF-RHF Final Energy:  -230.72587571107721
    Total Energy =                       -230.7258757110772081
  @DF-RHF Final Energy:  -230.72587542782486
    Total Energy =                       -230.7258754278248603
  @DF-RHF Final Energy:  -230.72587638482219
    Total Energy =                       -230.7258763848221861
  @DF-RHF Final Energy:  -230.72587638171370
    Total Energy =                       -230.7258763817137037
    Molecular point group: cs
  Charge       = 0
  Multiplicity = 1
  Basis Set: AUG-CC-PVDZ
    Blend: AUG-CC-PVDZ
  Basis Set: (AUG-CC-PVDZ AUX)
    Blend: AUG-CC-PVDZ-JKFIT

    Orbital Energies [Eh]
    ---------------------

    Doubly Occupied:

       1Ap   -11.247566     2Ap   -11.247033     3Ap   -11.247014
       4Ap   -11.245872     5Ap   -11.245856     6Ap   -11.245288
       7Ap    -1.146872     8Ap    -1.013293     9Ap    -1.013286
      10Ap    -0.822466    11Ap    -0.822453    12Ap    -0.704431
      13Ap    -0.643070    14Ap    -0.616274    15Ap    -0.585517
      16Ap    -0.585514     1App   -0.497924    17Ap    -0.493652
      18Ap    -0.493623     2App   -0.335013     3App   -0.335003

  @DF-RHF Final Energy:  -230.72587542662944

   => Energetics <=

    Nuclear Repulsion Energy =            202.0133184684007119
    One-Electron Energy =                -710.3043478495741283
    Two-Electron Energy =                 277.5651539545439732
    Total Energy =                       -230.7258754266294432

  Dipole Moment: [D]
     X:    -0.0010      Y:    -0.0017      Z:     0.0000     Total:     0.0020

  Basis Set: (AUG-CC-PVDZ AUX)
    Blend: AUG-CC-PVDZ-RI
    Molecular point group: cs

    Geometry (in Angstrom), charge = 0, multiplicity = 1:

       Center              X                  Y                   Z               Mass
    ------------   -----------------  -----------------  -----------------  -----------------
         C           -1.221510000000    -0.693250000000     0.000000000000    12.000000000000
         C           -1.211140000000     0.711220000000     0.000000000000    12.000000000000
         C           -0.010370000000    -1.404520000000     0.000000000000    12.000000000000
         C            0.010370000000     1.404520000000     0.000000000000    12.000000000000
         C            1.211140000000    -0.711220000000     0.000000000000    12.000000000000
         C            1.221510000000     0.693250000000     0.000000000000    12.000000000000
         H           -2.173110000000    -1.233320000000     0.000000000000     1.007825032230
         H           -2.154640000000     1.264012202829     0.000000000000     1.007825032230
         H           -0.018480000000    -2.497332202829     0.000000000000     1.007825032230
         H            0.018480000000     2.499967797171     0.000000000000     1.007825032230
         H            2.154640000000    -1.266647797171     0.000000000000     1.007825032230
         H            2.173110000000     1.233320000000     0.000000000000     1.007825032230

  Basis Set: AUG-CC-PVDZ
    Blend: AUG-CC-PVDZ
  Basis Set: (AUG-CC-PVDZ AUX)
    Blend: AUG-CC-PVDZ-JKFIT
  Basis Set: (AUG-CC-PVDZ AUX)
    Blend: AUG-CC-PVDZ-JKFIT
	 Reference Energy          =    -230.7258754266294432 [Eh]
	 Singles Energy            =      -0.0000000000000000 [Eh]
	 Same-Spin Energy          =      -0.2183581230467670 [Eh]
	 Opposite-Spin Energy      =      -0.6123648921041893 [Eh]
	 Correlation Energy        =      -0.8307230151509563 [Eh]
	 Total Energy              =    -231.5565984417804088 [Eh]

	 ================> DF-SCS-MP2 Energies <==================
	-----------------------------------------------------------
	 SCS Same-Spin Scale       =       0.3333333333333333 [-]
	 SCS Opposite-Spin Scale   =       1.2000000000000000 [-]
	 SCS Same-Spin Energy      =      -0.0727860410155890 [Eh]
	 SCS Opposite-Spin Energy  =      -0.7348378705250271 [Eh]
	 SCS Correlation Energy    =      -0.8076239115406161 [Eh]
	 SCS Total Energy          =    -231.5334993381700599 [Eh]
	-----------------------------------------------------------

  -Total Gradient:
     Atom            X                  Y                   Z
    ------   -----------------  -----------------  -----------------
       1        0.002211588551     0.001334150413     0.000000000000
       2        0.001976546050    -0.001073075148     0.000000000000
       3        0.000061673645     0.001735921590     0.000000000000
       4        0.000007459052    -0.003471247337     0.000000000000
       5       -0.002564044341     0.001674889349     0.000000000000
       6       -0.002368929100    -0.001332182695     0.000000000000
       7       -0.000620469437    -0.000357424503     0.000000000000
       8       -0.000285228164     0.000035542375     0.000000000000
       9       -0.000006370479     0.000197153123     0.000000000000
      10        0.000009410631     0.001609086652     0.000000000000
      11        0.000951527812    -0.000704404149     0.000000000000
      12        0.000626835776     0.000351590329     0.000000000000

  Vibration                       7                   8                   9
  Freq [cm^-1]                 392.2264            392.2612            566.5153
  Irrep                           Au                  Au                  Bg
  Reduced mass [u]              3.0677              3.0671             10.0300
  Force const [mDyne/A]         0.2781              0.2781              1.8966

  Vibration                       10                  11                  12
  Freq [cm^-1]                 596.2457            596.2569            685.4561
  Irrep                           Ag                  Ag                  Au
  Reduced mass [u]              6.0123              6.0124              1.0848
  Force const [mDyne/A]         1.2593              1.2594              0.3003

  Vibration                       13                  14                  15
  Freq [cm^-1]                 850.7850            850.8704            908.2811
  Irrep                           Bg                  Bg                  Bg
  Reduced mass [u]              1.2479              1.2479              1.0247
  Force const [mDyne/A]         0.5322              0.5323              0.4981

  Vibration                       16                  17                  18
  Freq [cm^-1]                 931.4862            931.5770            971.9774
  Irrep                           Au                  Au                  Bu
  Reduced mass [u]              1.3342              1.3341              6.5861
  Force const [mDyne/A]         0.6820              0.6821              3.6660

  Vibration                       19                  20                  21
  Freq [cm^-1]                1013.2405           1056.8125           1057.1740
  Irrep                           Ag                  Bu                  Bu
  Reduced mass [u]              5.9393              1.6484              1.6482
  Force const [mDyne/A]         3.5926              1.0847              1.0853

  Vibration                       22                  23                  24
  Freq [cm^-1]                1160.1346           1187.5097           1187.5690
  Irrep                           Bu                  Ag                  Ag
  Reduced mass [u]              1.0227              1.1126              1.1126
  Force const [mDyne/A]         0.8110              0.9244              0.9245

  Vibration                       25                  26                  27
  Freq [cm^-1]                1326.8306           1474.6293           1474.7358
  Irrep                           Ag                  Bu                  Bu
  Reduced mass [u]              1.2479              2.0866              2.0877
  Force const [mDyne/A]         1.2943              2.6734              2.6752

  Vibration                       28                  29                  30
  Freq [cm^-1]                1485.2305           1633.1210           1633.2148
  Irrep                           Bu                  Ag                  Ag
  Reduced mass [u]             10.2330              5.9940              5.9946
  Force const [mDyne/A]        13.2997              9.4190              9.4211

  Vibration                       31                  32                  33
  Freq [cm^-1]                3192.3597           3203.2617           3203.3733
  Irrep                           Bu                  Ag                  Ag
  Reduced mass [u]              1.0826              1.0879              1.0879
  Force const [mDyne/A]         6.5002              6.5770              6.5774

  Vibration                       34                  35                  36
  Freq [cm^-1]                3219.6126           3219.7367           3229.8258
  Irrep                           Bu                  Bu                  Ag
  Reduced mass [u]              1.0970              1.0970              1.1023
  Force const [mDyne/A]         6.6999              6.7004              6.7749

  ==> Thermochemistry Components <==

  Entropy, S
    Electronic S            0.000 [cal/(mol K)]        0.000 [J/(mol K)]       0.00000000 [mEh/K] (multiplicity = 1)
    Translational S        38.979 [cal/(mol K)]      163.089 [J/(mol K)]       0.06211726 [mEh/K] (mol. weight = 78.0470 [u], P = 101325.00 [Pa])
    Rotational S           24.318 [cal/(mol K)]      101.746 [J/(mol K)]       0.03875307 [mEh/K] (symmetry no. = 2)
    Vibrational S           5.005 [cal/(mol K)]       20.942 [J/(mol K)]       0.00797645 [mEh/K]
  Total S                  68.302 [cal/(mol K)]      285.777 [J/(mol K)]       0.10884678 [mEh/K]
  Correction S              0.000 [cal/(mol K)]        0.000 [J/(mol K)]       0.00000000 [mEh/K]

  Constant volume heat capacity, Cv
    Electronic Cv           0.000 [cal/(mol K)]        0.000 [J/(mol K)]       0.00000000 [mEh/K]
    Translational Cv        2.981 [cal/(mol K)]       12.472 [J/(mol K)]       0.00475022 [mEh/K]
    Rotational Cv           2.981 [cal/(mol K)]       12.472 [J/(mol K)]       0.00475022 [mEh/K]
    Vibrational Cv         12.101 [cal/(mol K)]       50.630 [J/(mol K)]       0.01928410 [mEh/K]
  Total Cv                 18.063 [cal/(mol K)]       75.574 [J/(mol K)]       0.02878453 [mEh/K]
  Correction Cv             0.000 [cal/(mol K)]        0.000 [J/(mol K)]       0.00000000 [mEh/K]

  Constant pressure heat capacity, Cp
    Electronic Cp           0.000 [cal/(mol K)]        0.000 [J/(mol K)]       0.00000000 [mEh/K]
    Translational Cp        4.968 [cal/(mol K)]       20.786 [J/(mol K)]       0.00791703 [mEh/K]
    Rotational Cp           2.981 [cal/(mol K)]       12.472 [J/(mol K)]       0.00475022 [mEh/K]
    Vibrational Cp         12.101 [cal/(mol K)]       50.630 [J/(mol K)]       0.01928410 [mEh/K]
  Total Cp                 20.050 [cal/(mol K)]       83.888 [J/(mol K)]       0.03195134 [mEh/K]
  Correction Cp             0.000 [cal/(mol K)]        0.000 [J/(mol K)]       0.00000000 [mEh/K]

  ==> Thermochemistry Energy Analysis <==

  Raw electronic energy, E0
  Total E0, Electronic energy at well bottom at 0 [K]                 -231.55660153 [Eh]

  Zero-point energy, ZPE_vib = Sum_i nu_i / 2
    Electronic ZPE          0.000 [kcal/mol]        0.000 [kJ/mol]       0.00000000 [Eh]
    Translational ZPE       0.000 [kcal/mol]        0.000 [kJ/mol]       0.00000000 [Eh]
    Rotational ZPE          0.000 [kcal/mol]        0.000 [kJ/mol]       0.00000000 [Eh]
    Vibrational ZPE        62.376 [kcal/mol]      260.979 [kJ/mol]       0.09940172 [Eh]       21816.155 [cm^-1]
  Correction ZPE           62.376 [kcal/mol]      260.979 [kJ/mol]       0.09940172 [Eh]       21816.155 [cm^-1]
  Total ZPE, Electronic energy at 0 [K]                               -231.45719981 [Eh]

  Thermal Energy, E (includes ZPE)
    Electronic E            0.000 [kcal/mol]        0.000 [kJ/mol]       0.00000000 [Eh]
    Translational E         0.889 [kcal/mol]        3.718 [kJ/mol]       0.00141628 [Eh]
    Rotational E            0.889 [kcal/mol]        3.718 [kJ/mol]       0.00141628 [Eh]
    Vibrational E          63.477 [kcal/mol]      265.589 [kJ/mol]       0.10115755 [Eh]
  Correction E             65.255 [kcal/mol]      273.026 [kJ/mol]       0.10399010 [Eh]
  Total E, Electronic energy at  298.15 [K]                           -231.45261142 [Eh]

  Enthalpy, H_trans = E_trans + k_B * T
    Electronic H            0.000 [kcal/mol]        0.000 [kJ/mol]       0.00000000 [Eh]
    Translational H         1.481 [kcal/mol]        6.197 [kJ/mol]       0.00236046 [Eh]
    Rotational H            0.889 [kcal/mol]        3.718 [kJ/mol]       0.00141628 [Eh]
    Vibrational H          63.477 [kcal/mol]      265.589 [kJ/mol]       0.10115755 [Eh]
  Correction H             65.847 [kcal/mol]      275.505 [kJ/mol]       0.10493429 [Eh]
  Total H, Enthalpy at  298.15 [K]                                    -231.45166724 [Eh]

  Gibbs free energy, G = H - T * S
    Electronic G            0.000 [kcal/mol]        0.000 [kJ/mol]       0.00000000 [Eh]
    Translational G       -10.140 [kcal/mol]      -42.428 [kJ/mol]      -0.01615980 [Eh]
    Rotational G           -6.362 [kcal/mol]      -26.617 [kJ/mol]      -0.01013795 [Eh]
    Vibrational G          61.985 [kcal/mol]      259.345 [kJ/mol]       0.09877937 [Eh]
  Correction G             45.483 [kcal/mol]      190.300 [kJ/mol]       0.07248162 [Eh]
  Total G, Free enthalpy at  298.15 [K]                               -231.48411991 [Eh]

*** Psi4 exiting successfully. Buy a developer a beer!
