                               Psi4 1.3.2 release

  ==> Input File <==

--------------------------------------------------------------------------
set basis  6-31+G*
molecule {
0 1
   C        0.32153        0.81326        0.00000
   C       -0.86505       -0.12817        0.00000
   C        0.54353       -0.68508        0.00000
   H        0.53795        1.36069       -0.92039
   H        0.53795        1.36069        0.92039
   H       -1.44742       -0.21449        0.92034
   H       -1.44742       -0.21449       -0.92034
   H        0.90937       -1.14629       -0.92037
   H        0.90937       -1.14629        0.92037
}
energy('m06-2x')
frequencies('m06-2x')
--------------------------------------------------------------------------

    Molecular point group: cs
  Charge       = 0
  Multiplicity = 1
  Basis Set: 6-31+G*
    Blend: 6-31+G*
  Basis Set: (6-31+G* AUX)
    Blend: HEAVY-AUG-CC-PVDZ-JKFIT
  @DF-RKS Final Energy:  -117.83382011894673
    Total Energy =                       -117.8338201189467327
    Molecular point group: cs
  Basis Set: 6-31+G*
    Blend: 6-31+G*
  Basis Set: (6-31+G* AUX)
    Blend: HEAVY-AUG-CC-PVDZ-JKFIT
  @DF-RKS Final Energy:  -117.83382011926672
    Total Energy =                       -117.8338201192667185
  Basis Set: 6-31+G*
    Blend: 6-31+G*
  Basis Set: (6-31+G* AUX)
    Blend: HEAVY-AUG-CC-PVDZ-JKFIT
  Basis Set: 6-31+G*
    Blend: 6-31+G*
  Basis Set: (6-31+G* AUX)
    Blend: HEAVY-AUG-CC-PVDZ-JKFIT
  @DF-RKS Final Energy:  -117.83382011926577
    Total Energy =                       -117.8338201192657806
  Basis Set: 6-31+G*
  @DF-RKS Final Energy:  -117.83383395376160
    Total Energy =                       -117.8338339537615980
  @DF-RKS Final Energy:  -117.83383156623809
    Total Energy =                       -117.8338315662380893
  @DF-RKS Final Energy:  -117.83382527626385
    Total Energy =                       -117.8338252762638518
  @DF-RKS Final Energy:  -117.83380983324051
    Total Energy =                       -117.8338098332405082
  @DF-RKS Final Energy:  -117.83381208774634
    Total Energy =                       -117.8338120877463382
  @DF-RKS Final Energy:  -117.83382812774707
    Total Energy =                       -117.8338281277470685
  @DF-RKS Final Energy:  -117.83383033883349
    Total Energy =                       -117.8338303388334936
  @DF-RKS Final Energy:  -117.83383432531294
    Total Energy =                       -117.8338343253129352
  @DF-RKS Final Energy:  -117.83383209900873
    Total Energy =                       -117.8338320990087311
  @DF-RKS Final Energy:  -117.83381969874426
    Total Energy =                       -117.8338196987442643
  @DF-RKS Final Energy:  -117.83382017230214
    Total Energy =                       -117.8338201723021399
  @DF-RKS Final Energy:  -117.83382074849372
    Total Energy =                       -117.8338207484937215
  @DF-RKS Final Energy:  -117.83384197974932
    Total Energy =                       -117.8338419797493231
  @DF-RKS Final Energy:  -117.83382226951144
    Total Energy =                       -117.8338222695114439
  @DF-RKS Final Energy:  -117.83384071045462
    Total Energy =                       -117.8338407104546235
  @DF-RKS Final Energy:  -117.83379872789669
    Total Energy =                       -117.8337987278966921
  @DF-RKS Final Energy:  -117.83378402426453
    Total Energy =                       -117.8337840242645314
  @DF-RKS Final Energy:  -117.83384916836181
    Total Energy =                       -117.8338491683617946
  @DF-RKS Final Energy:  -117.83381517818678
    Total Energy =                       -117.8338151781867822
  @DF-RKS Final Energy:  -117.83386133575847
    Total Energy =                       -117.8338613357584705
  @DF-RKS Final Energy:  -117.83384919651421
    Total Energy =                       -117.8338491965142083
  @DF-RKS Final Energy:  -117.83378399718745
    Total Energy =                       -117.8337839971874530
  @DF-RKS Final Energy:  -117.83378414390177
    Total Energy =                       -117.8337841439017666
  @DF-RKS Final Energy:  -117.83384903930023
    Total Energy =                       -117.8338490393002331
  @DF-RKS Final Energy:  -117.83381822406012
    Total Energy =                       -117.8338182240601100
  @DF-RKS Final Energy:  -117.83381793933326
    Total Energy =                       -117.8338179393332581
  @DF-RKS Final Energy:  -117.83381712140000
    Total Energy =                       -117.8338171214000027
  @DF-RKS Final Energy:  -117.83381956030627
    Total Energy =                       -117.8338195603062672
  @DF-RKS Final Energy:  -117.83381774064746
    Total Energy =                       -117.8338177406474614
  @DF-RKS Final Energy:  -117.83381845668707
    Total Energy =                       -117.8338184566870694
  @DF-RKS Final Energy:  -117.83381780314426
    Total Energy =                       -117.8338178031442567
  Basis Set: (6-31+G* AUX)
    Blend: HEAVY-AUG-CC-PVDZ-JKFIT
  Basis Set: 6-31+G*
    Blend: 6-31+G*
  Basis Set: (6-31+G* AUX)
    Blend: HEAVY-AUG-CC-PVDZ-JKFIT
  @DF-RKS Final Energy:  -117.83381949457909
    Total Energy =                       -117.8338194945790747
  Basis Set: 6-31+G*
    Blend: 6-31+G*
  Basis Set: (6-31+G* AUX)
    Blend: HEAVY-AUG-CC-PVDZ-JKFIT
    Molecular point group: c1
  Charge       = 0
  Multiplicity = 1
  Basis Set: 6-31+G*
    Blend: 6-31+G*
  Basis Set: (6-31+G* AUX)
    Blend: HEAVY-AUG-CC-PVDZ-JKFIT

    Orbital Energies [Eh]
    ---------------------

    Doubly Occupied:

       1A    -10.548910     2A    -10.548338     3A    -10.548331
       4A     -0.944323     5A     -0.678873     6A     -0.678854
       7A     -0.565778     8A     -0.528685     9A     -0.425512
      10A     -0.425484    11A     -0.348833    12A     -0.348801

  @DF-RKS Final Energy:  -117.83381723271147

   => Energetics <=

    Nuclear Repulsion Energy =             75.2814718714328848
    One-Electron Energy =                -305.7405286208013990
    Two-Electron Energy =                 121.5156989187110241
    DFT Exchange-Correlation Energy =      -8.8904594020539669
    Empirical Dispersion Energy =           0.0000000000000000
    VV10 Nonlocal Energy =                  0.0000000000000000
    Total Energy =                       -117.8338172327114677

  Dipole Moment: [D]
     X:     0.0003      Y:    -0.0005      Z:    -0.0006     Total:     0.0009

    Molecular point group: c1

    Geometry (in Angstrom), charge = 0, multiplicity = 1:

       Center              X                  Y                   Z               Mass
    ------------   -----------------  -----------------  -----------------  -----------------
         C            0.321531939855     0.813261460475     0.000000000000    12.000000000000
         C           -0.865048060145    -0.128168539525     0.000000000000    12.000000000000
         C            0.543531939855    -0.685078539525     0.000000000000    12.000000000000
         H            0.537951939855     1.360691460475    -0.920390000000     1.007825032230
         H            0.537951939855     1.360691460475     0.920390000000     1.007825032230
         H           -1.447418060145    -0.214488539525     0.919737951237     1.007825032230
         H           -1.447418060145    -0.214488539525    -0.920942048763     1.007825032230
         H            0.907830274543    -1.145679013968    -0.919767951237     1.007825032230
         H            0.910913605168    -1.146898065083     0.920972048763     1.007825032230

  Basis Set: 6-31+G*
    Blend: 6-31+G*
  Basis Set: (6-31+G* AUX)
    Blend: HEAVY-AUG-CC-PVDZ-JKFIT

  -Total Gradient:
     Atom            X                  Y                   Z
    ------   -----------------  -----------------  -----------------
       1        0.001862249038     0.004660508658     0.000005933171
       2       -0.004918283752    -0.000703355104     0.000452102862
       3        0.003147224321    -0.003951385065    -0.001259714361
       4        0.000998008534     0.002492393041    -0.004627505544
       5        0.001002283313     0.002505294387     0.004624466795
       6       -0.002487537983    -0.000385755398     0.004335990401
       7       -0.002841269099    -0.000394477298    -0.004903850480
       8        0.001351083615    -0.001783140488    -0.003927991201
       9        0.002079544643    -0.002508130529     0.005298785671

  Vibration                       7                   8                   9
  Freq [cm^-1]                 781.2811            784.3251            892.8311
  Irrep                          App                 App                 App
  Reduced mass [u]              1.0217              1.0224              1.0440
  Force const [mDyne/A]         0.3674              0.3706              0.4903

  Vibration                       10                  11                  12
  Freq [cm^-1]                 900.2837            903.8253           1071.7239
  Irrep                           Ap                  Ap                  Ap
  Reduced mass [u]              3.5435              3.8059              1.2839
  Force const [mDyne/A]         1.6922              1.8318              0.8689

  Vibration                       13                  14                  15
  Freq [cm^-1]                1079.0939           1111.3141           1172.2634
  Irrep                           Ap                  Ap                 App
  Reduced mass [u]              1.3060              1.3680              1.0081
  Force const [mDyne/A]         0.8960              0.9954              0.8162

  Vibration                       16                  17                  18
  Freq [cm^-1]                1214.1437           1226.8970           1228.7792
  Irrep                           Ap                 App                 App
  Reduced mass [u]              2.6462              1.4464              1.4489
  Force const [mDyne/A]         2.2983              1.2828              1.2890

  Vibration                       19                  20                  21
  Freq [cm^-1]                1487.6398           1502.2785           1551.9063
  Irrep                           Ap                  Ap                  Ap
  Reduced mass [u]              1.0974              1.0890              1.3239
  Force const [mDyne/A]         1.4309              1.4480              1.8786

  Vibration                       22                  23                  24
  Freq [cm^-1]                3114.2721           3117.7126           3122.9928
  Irrep                           Ap                  Ap                  Ap
  Reduced mass [u]              1.0501              1.0507              1.0631
  Force const [mDyne/A]         6.0007              6.0171              6.1088

  Vibration                       25                  26                  27
  Freq [cm^-1]                3193.9964           3194.6861           3212.4563
  Irrep                          App                 App                 App
  Reduced mass [u]              1.1211              1.1208              1.1162
  Force const [mDyne/A]         6.7384              6.7398              6.7868

  ==> Thermochemistry Components <==

  Entropy, S
    Electronic S            0.000 [cal/(mol K)]        0.000 [J/(mol K)]       0.00000000 [mEh/K] (multiplicity = 1)
    Translational S        37.135 [cal/(mol K)]      155.375 [J/(mol K)]       0.05917914 [mEh/K] (mol. weight = 42.0470 [u], P = 101325.00 [Pa])
    Rotational S           21.699 [cal/(mol K)]       90.789 [J/(mol K)]       0.03457982 [mEh/K] (symmetry no. = 1)
    Vibrational S           1.254 [cal/(mol K)]        5.248 [J/(mol K)]       0.00199868 [mEh/K]
  Total S                  60.089 [cal/(mol K)]      251.412 [J/(mol K)]       0.09575764 [mEh/K]
  Correction S              0.000 [cal/(mol K)]        0.000 [J/(mol K)]       0.00000000 [mEh/K]

  Constant volume heat capacity, Cv
    Electronic Cv           0.000 [cal/(mol K)]        0.000 [J/(mol K)]       0.00000000 [mEh/K]
    Translational Cv        2.981 [cal/(mol K)]       12.472 [J/(mol K)]       0.00475022 [mEh/K]
    Rotational Cv           2.981 [cal/(mol K)]       12.472 [J/(mol K)]       0.00475022 [mEh/K]
    Vibrational Cv          4.747 [cal/(mol K)]       19.862 [J/(mol K)]       0.00756502 [mEh/K]
  Total Cv                 10.709 [cal/(mol K)]       44.805 [J/(mol K)]       0.01706545 [mEh/K]
  Correction Cv             0.000 [cal/(mol K)]        0.000 [J/(mol K)]       0.00000000 [mEh/K]

  Constant pressure heat capacity, Cp
    Electronic Cp           0.000 [cal/(mol K)]        0.000 [J/(mol K)]       0.00000000 [mEh/K]
    Translational Cp        4.968 [cal/(mol K)]       20.786 [J/(mol K)]       0.00791703 [mEh/K]
    Rotational Cp           2.981 [cal/(mol K)]       12.472 [J/(mol K)]       0.00475022 [mEh/K]
    Vibrational Cp          4.747 [cal/(mol K)]       19.862 [J/(mol K)]       0.00756502 [mEh/K]
  Total Cp                 12.696 [cal/(mol K)]       53.120 [J/(mol K)]       0.02023226 [mEh/K]
  Correction Cp             0.000 [cal/(mol K)]        0.000 [J/(mol K)]       0.00000000 [mEh/K]

  ==> Thermochemistry Energy Analysis <==

  Raw electronic energy, E0
  Total E0, Electronic energy at well bottom at 0 [K]                 -117.83382012 [Eh]

  Zero-point energy, ZPE_vib = Sum_i nu_i / 2
    Electronic ZPE          0.000 [kcal/mol]        0.000 [kJ/mol]       0.00000000 [Eh]
    Translational ZPE       0.000 [kcal/mol]        0.000 [kJ/mol]       0.00000000 [Eh]
    Rotational ZPE          0.000 [kcal/mol]        0.000 [kJ/mol]       0.00000000 [Eh]
    Vibrational ZPE        51.271 [kcal/mol]      214.519 [kJ/mol]       0.08170580 [Eh]       17932.351 [cm^-1]
  Correction ZPE           51.271 [kcal/mol]      214.519 [kJ/mol]       0.08170580 [Eh]       17932.351 [cm^-1]
  Total ZPE, Electronic energy at 0 [K]                               -117.75211432 [Eh]

  Thermal Energy, E (includes ZPE)
    Electronic E            0.000 [kcal/mol]        0.000 [kJ/mol]       0.00000000 [Eh]
    Translational E         0.889 [kcal/mol]        3.718 [kJ/mol]       0.00141628 [Eh]
    Rotational E            0.889 [kcal/mol]        3.718 [kJ/mol]       0.00141628 [Eh]
    Vibrational E          51.577 [kcal/mol]      215.797 [kJ/mol]       0.08219279 [Eh]
  Correction E             53.354 [kcal/mol]      223.234 [kJ/mol]       0.08502534 [Eh]
  Total E, Electronic energy at  298.15 [K]                           -117.74879478 [Eh]

  Enthalpy, H_trans = E_trans + k_B * T
    Electronic H            0.000 [kcal/mol]        0.000 [kJ/mol]       0.00000000 [Eh]
    Translational H         1.481 [kcal/mol]        6.197 [kJ/mol]       0.00236046 [Eh]
    Rotational H            0.889 [kcal/mol]        3.718 [kJ/mol]       0.00141628 [Eh]
    Vibrational H          51.577 [kcal/mol]      215.797 [kJ/mol]       0.08219279 [Eh]
  Correction H             53.947 [kcal/mol]      225.713 [kJ/mol]       0.08596953 [Eh]
  Total H, Enthalpy at  298.15 [K]                                    -117.74785059 [Eh]

  Gibbs free energy, G = H - T * S
    Electronic G            0.000 [kcal/mol]        0.000 [kJ/mol]       0.00000000 [Eh]
    Translational G        -9.591 [kcal/mol]      -40.128 [kJ/mol]      -0.01528380 [Eh]
    Rotational G           -5.581 [kcal/mol]      -23.350 [kJ/mol]      -0.00889370 [Eh]
    Vibrational G          51.203 [kcal/mol]      214.233 [kJ/mol]       0.08159688 [Eh]
  Correction G             36.031 [kcal/mol]      150.755 [kJ/mol]       0.05741939 [Eh]
  Total G, Free enthalpy at  298.15 [K]                               -117.77640073 [Eh]

*** Psi4 exiting successfully. Buy a developer a beer!
