                               Psi4 1.3.2 release

  ==> Input File <==

--------------------------------------------------------------------------
set basis  6-31++G**
molecule {
0 1
   C        0.32153        0.81326        0.00000
   C       -0.86505       -0.12817        0.00000
   C        0.54353       -0.68508        0.00000
   H        0.53795        1.36069       -0.92039
   H        0.53795        1.36069        0.92039
   H       -1.44742       -0.21449        0.92034
   H       -1.44742       -0.21449       -0.92034
   H        0.90937       -1.14629       -0.92037
   H        0.90937       -1.14629        0.92037
}
energy('B3LYP')
frequencies('B3LYP')
--------------------------------------------------------------------------

    Molecular point group: cs
  Charge       = 0
  Multiplicity = 1
  Basis Set: 6-31++G**
    Blend: 6-31++G**
  Basis Set: (6-31++G** AUX)
    Blend: AUG-CC-PVDZ-JKFIT
  @DF-RKS Final Energy:  -117.90922992992283
    Total Energy =                       -117.9092299299228301
    Molecular point group: cs
  Basis Set: 6-31++G**
    Blend: 6-31++G**
  Basis Set: (6-31++G** AUX)
    Blend: AUG-CC-PVDZ-JKFIT
  @DF-RKS Final Energy:  -117.90922992997817
    Total Energy =                       -117.9092299299781672
  Basis Set: 6-31++G**
    Blend: 6-31++G**
  Basis Set: (6-31++G** AUX)
    Blend: AUG-CC-PVDZ-JKFIT
  Basis Set: 6-31++G**
    Blend: 6-31++G**
  Basis Set: (6-31++G** AUX)
    Blend: AUG-CC-PVDZ-JKFIT
  @DF-RKS Final Energy:  -117.90922992997800
    Total Energy =                       -117.9092299299779967
  Basis Set: 6-31++G**
  @DF-RKS Final Energy:  -117.90923135682718
    Total Energy =                       -117.9092313568271777
  @DF-RKS Final Energy:  -117.90923411857523
    Total Energy =                       -117.9092341185752275
  @DF-RKS Final Energy:  -117.90923033953480
    Total Energy =                       -117.9092303395348011
  @DF-RKS Final Energy:  -117.90923085080921
    Total Energy =                       -117.9092308508092088
  @DF-RKS Final Energy:  -117.90922879944408
    Total Energy =                       -117.9092287994440795
  @DF-RKS Final Energy:  -117.90922835672866
    Total Energy =                       -117.9092283567286614
  @DF-RKS Final Energy:  -117.90923044447898
    Total Energy =                       -117.9092304444789789
  @DF-RKS Final Energy:  -117.90923430611635
    Total Energy =                       -117.9092343061163461
  @DF-RKS Final Energy:  -117.90923049159767
    Total Energy =                       -117.9092304915976683
  @DF-RKS Final Energy:  -117.90922804951215
    Total Energy =                       -117.9092280495121514
  @DF-RKS Final Energy:  -117.90922819791813
    Total Energy =                       -117.9092281979181251
  @DF-RKS Final Energy:  -117.90922961986912
    Total Energy =                       -117.9092296198691230
  @DF-RKS Final Energy:  -117.90923784548561
    Total Energy =                       -117.9092378454856060
  @DF-RKS Final Energy:  -117.90922623578906
    Total Energy =                       -117.9092262357890633
  @DF-RKS Final Energy:  -117.90923970521627
    Total Energy =                       -117.9092397052162653
  @DF-RKS Final Energy:  -117.90921643994491
    Total Energy =                       -117.9092164399449132
  @DF-RKS Final Energy:  -117.90919648796695
    Total Energy =                       -117.9091964879669518
  @DF-RKS Final Energy:  -117.90925648440337
    Total Energy =                       -117.9092564844033717
  @DF-RKS Final Energy:  -117.90922117508143
    Total Energy =                       -117.9092211750814272
  @DF-RKS Final Energy:  -117.90924815116769
    Total Energy =                       -117.9092481511676880
  @DF-RKS Final Energy:  -117.90925638976124
    Total Energy =                       -117.9092563897612393
  @DF-RKS Final Energy:  -117.90919658437652
    Total Energy =                       -117.9091965843765166
  @DF-RKS Final Energy:  -117.90919653964342
    Total Energy =                       -117.9091965396434176
  @DF-RKS Final Energy:  -117.90925643358356
    Total Energy =                       -117.9092564335835647
  @DF-RKS Final Energy:  -117.90922797884366
    Total Energy =                       -117.9092279788436457
  @DF-RKS Final Energy:  -117.90922778419116
    Total Energy =                       -117.9092277841911596
  @DF-RKS Final Energy:  -117.90922711386062
    Total Energy =                       -117.9092271138606236
  @DF-RKS Final Energy:  -117.90922902963332
    Total Energy =                       -117.9092290296333232
  @DF-RKS Final Energy:  -117.90922791472317
    Total Energy =                       -117.9092279147231750
  @DF-RKS Final Energy:  -117.90922774841825
    Total Energy =                       -117.9092277484182461
  @DF-RKS Final Energy:  -117.90922768323627
    Total Energy =                       -117.9092276832362671
  Basis Set: (6-31++G** AUX)
    Blend: AUG-CC-PVDZ-JKFIT
  Basis Set: 6-31++G**
    Blend: 6-31++G**
  Basis Set: (6-31++G** AUX)
    Blend: AUG-CC-PVDZ-JKFIT
  @DF-RKS Final Energy:  -117.90922938601938
    Total Energy =                       -117.9092293860193763
  Basis Set: 6-31++G**
    Blend: 6-31++G**
  Basis Set: (6-31++G** AUX)
    Blend: AUG-CC-PVDZ-JKFIT
    Molecular point group: c1
  Charge       = 0
  Multiplicity = 1
  Basis Set: 6-31++G**
    Blend: 6-31++G**
  Basis Set: (6-31++G** AUX)
    Blend: AUG-CC-PVDZ-JKFIT

    Orbital Energies [Eh]
    ---------------------

    Doubly Occupied:

       1A    -10.191548     2A    -10.191185     3A    -10.191181
       4A     -0.847351     5A     -0.596059     6A     -0.596054
       7A     -0.492388     8A     -0.463695     9A     -0.364529
      10A     -0.364516    11A     -0.294962    12A     -0.294956

  @DF-RKS Final Energy:  -117.90922756938905

   => Energetics <=

    Nuclear Repulsion Energy =             75.2814718714328848
    One-Electron Energy =                -305.8462677285573363
    Two-Electron Energy =                 127.6165181017970838
    DFT Exchange-Correlation Energy =     -14.9609498140616672
    Empirical Dispersion Energy =           0.0000000000000000
    VV10 Nonlocal Energy =                  0.0000000000000000
    Total Energy =                       -117.9092275693890457

  Dipole Moment: [D]
     X:    -0.0001      Y:    -0.0001      Z:    -0.0007     Total:     0.0007

    Molecular point group: c1

    Geometry (in Angstrom), charge = 0, multiplicity = 1:

       Center              X                  Y                   Z               Mass
    ------------   -----------------  -----------------  -----------------  -----------------
         C            0.321531939855     0.813261460475     0.000000000000    12.000000000000
         C           -0.865048060145    -0.128168539525     0.000000000000    12.000000000000
         C            0.543531939855    -0.685078539525     0.000000000000    12.000000000000
         H            0.537951939855     1.360691460475    -0.920390000000     1.007825032230
         H            0.537951939855     1.360691460475     0.920390000000     1.007825032230
         H           -1.447418060145    -0.214488539525     0.919737951237     1.007825032230
         H           -1.447418060145    -0.214488539525    -0.920942048763     1.007825032230
         H            0.907830274543    -1.145679013968    -0.919767951237     1.007825032230
         H            0.910913605168    -1.146898065083     0.920972048763     1.007825032230

  Basis Set: 6-31++G**
    Blend: 6-31++G**
  Basis Set: (6-31++G** AUX)
    Blend: AUG-CC-PVDZ-JKFIT

  -Total Gradient:
     Atom            X                  Y                   Z
    ------   -----------------  -----------------  -----------------
       1       -0.000061491665    -0.000140139254     0.000004268542
       2        0.000179171437     0.000030027198     0.000437699231
       3       -0.000096611070     0.000130993457    -0.001225177745
       4        0.000568031096     0.001441959615    -0.004258011994
       5        0.000574128569     0.001454424431     0.004255661535
       6       -0.001374560096    -0.000229438660     0.003970768145
       7       -0.001720936389    -0.000236338768    -0.004523577377
       8        0.000607719953    -0.000868594536    -0.003581583545
       9        0.001323382413    -0.001579344083     0.004920098557

  Vibration                       7                   8                   9
  Freq [cm^-1]                 777.0073            777.1769            871.9826
  Irrep                          App                 App                  Ap
  Reduced mass [u]              1.0211              1.0212              4.0503
  Force const [mDyne/A]         0.3632              0.3634              1.8145

  Vibration                       10                  11                  12
  Freq [cm^-1]                 873.0113            893.1987           1070.6629
  Irrep                           Ap                 App                  Ap
  Reduced mass [u]              4.0537              1.0441              1.2316
  Force const [mDyne/A]         1.8203              0.4908              0.8318

  Vibration                       13                  14                  15
  Freq [cm^-1]                1073.7779           1102.0003           1163.9954
  Irrep                           Ap                  Ap                 App
  Reduced mass [u]              1.2328              1.4254              1.0078
  Force const [mDyne/A]         0.8375              1.0199              0.8045

  Vibration                       16                  17                  18
  Freq [cm^-1]                1204.2267           1224.3585           1224.4561
  Irrep                           Ap                 App                 App
  Reduced mass [u]              2.8216              1.4513              1.4512
  Force const [mDyne/A]         2.4108              1.2818              1.2819

  Vibration                       19                  20                  21
  Freq [cm^-1]                1483.1265           1483.3742           1531.4342
  Irrep                           Ap                  Ap                  Ap
  Reduced mass [u]              1.0885              1.0891              1.2954
  Force const [mDyne/A]         1.4107              1.4119              1.7900

  Vibration                       22                  23                  24
  Freq [cm^-1]                3075.8239           3075.9958           3083.2719
  Irrep                           Ap                  Ap                  Ap
  Reduced mass [u]              1.0498              1.0499              1.0622
  Force const [mDyne/A]         5.8519              5.8530              5.9493

  Vibration                       25                  26                  27
  Freq [cm^-1]                3153.6951           3153.7944           3174.7625
  Irrep                          App                 App                 App
  Reduced mass [u]              1.1200              1.1201              1.1161
  Force const [mDyne/A]         6.5633              6.5638              6.6277

  ==> Thermochemistry Components <==

  Entropy, S
    Electronic S            0.000 [cal/(mol K)]        0.000 [J/(mol K)]       0.00000000 [mEh/K] (multiplicity = 1)
    Translational S        37.135 [cal/(mol K)]      155.375 [J/(mol K)]       0.05917914 [mEh/K] (mol. weight = 42.0470 [u], P = 101325.00 [Pa])
    Rotational S           21.699 [cal/(mol K)]       90.789 [J/(mol K)]       0.03457982 [mEh/K] (symmetry no. = 1)
    Vibrational S           1.309 [cal/(mol K)]        5.477 [J/(mol K)]       0.00208597 [mEh/K]
  Total S                  60.144 [cal/(mol K)]      251.641 [J/(mol K)]       0.09584493 [mEh/K]
  Correction S              0.000 [cal/(mol K)]        0.000 [J/(mol K)]       0.00000000 [mEh/K]

  Constant volume heat capacity, Cv
    Electronic Cv           0.000 [cal/(mol K)]        0.000 [J/(mol K)]       0.00000000 [mEh/K]
    Translational Cv        2.981 [cal/(mol K)]       12.472 [J/(mol K)]       0.00475022 [mEh/K]
    Rotational Cv           2.981 [cal/(mol K)]       12.472 [J/(mol K)]       0.00475022 [mEh/K]
    Vibrational Cv          4.890 [cal/(mol K)]       20.460 [J/(mol K)]       0.00779276 [mEh/K]
  Total Cv                 10.852 [cal/(mol K)]       45.403 [J/(mol K)]       0.01729319 [mEh/K]
  Correction Cv             0.000 [cal/(mol K)]        0.000 [J/(mol K)]       0.00000000 [mEh/K]

  Constant pressure heat capacity, Cp
    Electronic Cp           0.000 [cal/(mol K)]        0.000 [J/(mol K)]       0.00000000 [mEh/K]
    Translational Cp        4.968 [cal/(mol K)]       20.786 [J/(mol K)]       0.00791703 [mEh/K]
    Rotational Cp           2.981 [cal/(mol K)]       12.472 [J/(mol K)]       0.00475022 [mEh/K]
    Vibrational Cp          4.890 [cal/(mol K)]       20.460 [J/(mol K)]       0.00779276 [mEh/K]
  Total Cp                 12.839 [cal/(mol K)]       53.718 [J/(mol K)]       0.02046000 [mEh/K]
  Correction Cp             0.000 [cal/(mol K)]        0.000 [J/(mol K)]       0.00000000 [mEh/K]

  ==> Thermochemistry Energy Analysis <==

  Raw electronic energy, E0
  Total E0, Electronic energy at well bottom at 0 [K]                 -117.90922993 [Eh]

  Zero-point energy, ZPE_vib = Sum_i nu_i / 2
    Electronic ZPE          0.000 [kcal/mol]        0.000 [kJ/mol]       0.00000000 [Eh]
    Translational ZPE       0.000 [kcal/mol]        0.000 [kJ/mol]       0.00000000 [Eh]
    Rotational ZPE          0.000 [kcal/mol]        0.000 [kJ/mol]       0.00000000 [Eh]
    Vibrational ZPE        50.709 [kcal/mol]      212.164 [kJ/mol]       0.08080919 [Eh]       17735.566 [cm^-1]
  Correction ZPE           50.709 [kcal/mol]      212.164 [kJ/mol]       0.08080919 [Eh]       17735.566 [cm^-1]
  Total ZPE, Electronic energy at 0 [K]                               -117.82842074 [Eh]

  Thermal Energy, E (includes ZPE)
    Electronic E            0.000 [kcal/mol]        0.000 [kJ/mol]       0.00000000 [Eh]
    Translational E         0.889 [kcal/mol]        3.718 [kJ/mol]       0.00141628 [Eh]
    Rotational E            0.889 [kcal/mol]        3.718 [kJ/mol]       0.00141628 [Eh]
    Vibrational E          51.027 [kcal/mol]      213.496 [kJ/mol]       0.08131635 [Eh]
  Correction E             52.804 [kcal/mol]      220.933 [kJ/mol]       0.08414891 [Eh]
  Total E, Electronic energy at  298.15 [K]                           -117.82508102 [Eh]

  Enthalpy, H_trans = E_trans + k_B * T
    Electronic H            0.000 [kcal/mol]        0.000 [kJ/mol]       0.00000000 [Eh]
    Translational H         1.481 [kcal/mol]        6.197 [kJ/mol]       0.00236046 [Eh]
    Rotational H            0.889 [kcal/mol]        3.718 [kJ/mol]       0.00141628 [Eh]
    Vibrational H          51.027 [kcal/mol]      213.496 [kJ/mol]       0.08131635 [Eh]
  Correction H             53.397 [kcal/mol]      223.412 [kJ/mol]       0.08509309 [Eh]
  Total H, Enthalpy at  298.15 [K]                                    -117.82413684 [Eh]

  Gibbs free energy, G = H - T * S
    Electronic G            0.000 [kcal/mol]        0.000 [kJ/mol]       0.00000000 [Eh]
    Translational G        -9.591 [kcal/mol]      -40.128 [kJ/mol]      -0.01528380 [Eh]
    Rotational G           -5.581 [kcal/mol]      -23.350 [kJ/mol]      -0.00889370 [Eh]
    Vibrational G          50.637 [kcal/mol]      211.863 [kJ/mol]       0.08069442 [Eh]
  Correction G             35.465 [kcal/mol]      148.385 [kJ/mol]       0.05651693 [Eh]
  Total G, Free enthalpy at  298.15 [K]                               -117.85271300 [Eh]

*** Psi4 exiting successfully. Buy a developer a beer!
