                               Psi4 1.3.2 release

  ==> Input File <==

--------------------------------------------------------------------------
set basis  aug-cc-pVDZ
molecule {
0 1
   O        0.00000        0.00000        0.49152
   C        0.00000        0.00000       -0.65516
}
energy('CCSD')
frequencies('CCSD')
--------------------------------------------------------------------------

    Molecular point group: c2v
  Charge       = 0
  Multiplicity = 1
  Basis Set: AUG-CC-PVDZ
    Blend: AUG-CC-PVDZ
  @RHF Final Energy:  -112.75230151377932
    Total Energy =                       -112.7523015137793152
      * MP2 total energy                      = -113.059658944786534
      * CCSD total energy                     = -113.065471924599564
    Molecular point group: c2v
  Basis Set: AUG-CC-PVDZ
    Blend: AUG-CC-PVDZ
  @RHF Final Energy:  -112.75230151377937
    Total Energy =                       -112.7523015137793720
      * MP2 total energy                      = -113.059658945052888
      * CCSD total energy                     = -113.065471925016254
  Basis Set: AUG-CC-PVDZ
    Blend: AUG-CC-PVDZ
  @RHF Final Energy:  -112.75230151377937
    Total Energy =                       -112.7523015137793720
      * MP2 total energy                      = -113.059658945052888
      * CCSD total energy                     = -113.065471924693668
  Basis Set: AUG-CC-PVDZ
    Blend: AUG-CC-PVDZ
  @RHF Final Energy:  -112.75247133861619
    Total Energy =                       -112.7524713386161892
      * MP2 total energy                      = -113.059645704260944
      * CCSD total energy                     = -113.065499522696655
    Molecular point group: c2v
  Charge       = 0
  Multiplicity = 1
  Basis Set: AUG-CC-PVDZ
    Blend: AUG-CC-PVDZ

    Orbital Energies [Eh]
    ---------------------

    Doubly Occupied:

       1A1   -20.679072     2A1   -11.381918     3A1    -1.516427
       4A1    -0.806643     1B2    -0.632704     1B1    -0.632704
       5A1    -0.556881

  @RHF Final Energy:  -112.75212742585958

   => Energetics <=

    Nuclear Repulsion Energy =             22.1318434565547548
    One-Electron Energy =                -197.3552466315928484
    Two-Electron Energy =                  62.4712757491785098
    Total Energy =                       -112.7521274258595838

  Dipole Moment: [D]
     X:     0.0000      Y:     0.0000      Z:    -0.3555     Total:     0.3555

      * MP2 total energy                      = -113.059668029186383
      * CCSD total energy                     = -113.065440060054897
    Molecular point group: c2v

    Geometry (in Bohr), charge = 0, multiplicity = 1:

       Center              X                  Y                   Z
    ------------   -----------------  -----------------  -----------------
         O            0.000000000000     0.000000000000     0.929663427648
         C            0.000000000000     0.000000000000    -1.239157262514

  -Total gradient:
     Atom            X                  Y                   Z
    ------   -----------------  -----------------  -----------------
       1        0.000000000000     0.000000000000     0.017799043898
       2        0.000000000000     0.000000000000    -0.017799043898

  Vibration                       6
  Freq [cm^-1]                2123.6250
  Irrep                           A1
  Reduced mass [u]             13.4388
  Force const [mDyne/A]        35.7079

  ==> Thermochemistry Components <==

  Entropy, S
    Electronic S            0.000 [cal/(mol K)]        0.000 [J/(mol K)]       0.00000000 [mEh/K] (multiplicity = 1)
    Translational S        35.923 [cal/(mol K)]      150.302 [J/(mol K)]       0.05724692 [mEh/K] (mol. weight = 27.9949 [u], P = 101325.00 [Pa])
    Rotational S           11.343 [cal/(mol K)]       47.458 [J/(mol K)]       0.01807582 [mEh/K] (symmetry no. = 1)
    Vibrational S           0.001 [cal/(mol K)]        0.003 [J/(mol K)]       0.00000126 [mEh/K]
  Total S                  47.267 [cal/(mol K)]      197.763 [J/(mol K)]       0.07532401 [mEh/K]
  Correction S              0.000 [cal/(mol K)]        0.000 [J/(mol K)]       0.00000000 [mEh/K]

  Constant volume heat capacity, Cv
    Electronic Cv           0.000 [cal/(mol K)]        0.000 [J/(mol K)]       0.00000000 [mEh/K]
    Translational Cv        2.981 [cal/(mol K)]       12.472 [J/(mol K)]       0.00475022 [mEh/K]
    Rotational Cv           1.987 [cal/(mol K)]        8.314 [J/(mol K)]       0.00316681 [mEh/K]
    Vibrational Cv          0.007 [cal/(mol K)]        0.031 [J/(mol K)]       0.00001178 [mEh/K]
  Total Cv                  4.975 [cal/(mol K)]       20.817 [J/(mol K)]       0.00792881 [mEh/K]
  Correction Cv             0.000 [cal/(mol K)]        0.000 [J/(mol K)]       0.00000000 [mEh/K]

  Constant pressure heat capacity, Cp
    Electronic Cp           0.000 [cal/(mol K)]        0.000 [J/(mol K)]       0.00000000 [mEh/K]
    Translational Cp        4.968 [cal/(mol K)]       20.786 [J/(mol K)]       0.00791703 [mEh/K]
    Rotational Cp           1.987 [cal/(mol K)]        8.314 [J/(mol K)]       0.00316681 [mEh/K]
    Vibrational Cp          0.007 [cal/(mol K)]        0.031 [J/(mol K)]       0.00001178 [mEh/K]
  Total Cp                  6.963 [cal/(mol K)]       29.132 [J/(mol K)]       0.01109562 [mEh/K]
  Correction Cp             0.000 [cal/(mol K)]        0.000 [J/(mol K)]       0.00000000 [mEh/K]

  ==> Thermochemistry Energy Analysis <==

  Raw electronic energy, E0
  Total E0, Electronic energy at well bottom at 0 [K]                 -113.06547192 [Eh]

  Zero-point energy, ZPE_vib = Sum_i nu_i / 2
    Electronic ZPE          0.000 [kcal/mol]        0.000 [kJ/mol]       0.00000000 [Eh]
    Translational ZPE       0.000 [kcal/mol]        0.000 [kJ/mol]       0.00000000 [Eh]
    Rotational ZPE          0.000 [kcal/mol]        0.000 [kJ/mol]       0.00000000 [Eh]
    Vibrational ZPE         3.036 [kcal/mol]       12.702 [kJ/mol]       0.00483797 [Eh]        1061.812 [cm^-1]
  Correction ZPE            3.036 [kcal/mol]       12.702 [kJ/mol]       0.00483797 [Eh]        1061.812 [cm^-1]
  Total ZPE, Electronic energy at 0 [K]                               -113.06063395 [Eh]

  Thermal Energy, E (includes ZPE)
    Electronic E            0.000 [kcal/mol]        0.000 [kJ/mol]       0.00000000 [Eh]
    Translational E         0.889 [kcal/mol]        3.718 [kJ/mol]       0.00141628 [Eh]
    Rotational E            0.592 [kcal/mol]        2.479 [kJ/mol]       0.00094418 [Eh]
    Vibrational E           3.036 [kcal/mol]       12.703 [kJ/mol]       0.00483832 [Eh]
  Correction E              4.517 [kcal/mol]       18.900 [kJ/mol]       0.00719878 [Eh]
  Total E, Electronic energy at  298.15 [K]                           -113.05827315 [Eh]

  Enthalpy, H_trans = E_trans + k_B * T
    Electronic H            0.000 [kcal/mol]        0.000 [kJ/mol]       0.00000000 [Eh]
    Translational H         1.481 [kcal/mol]        6.197 [kJ/mol]       0.00236046 [Eh]
    Rotational H            0.592 [kcal/mol]        2.479 [kJ/mol]       0.00094418 [Eh]
    Vibrational H           3.036 [kcal/mol]       12.703 [kJ/mol]       0.00483832 [Eh]
  Correction H              5.110 [kcal/mol]       21.379 [kJ/mol]       0.00814296 [Eh]
  Total H, Enthalpy at  298.15 [K]                                    -113.05732896 [Eh]

  Gibbs free energy, G = H - T * S
    Electronic G            0.000 [kcal/mol]        0.000 [kJ/mol]       0.00000000 [Eh]
    Translational G        -9.229 [kcal/mol]      -38.615 [kJ/mol]      -0.01470771 [Eh]
    Rotational G           -2.789 [kcal/mol]      -11.671 [kJ/mol]      -0.00444512 [Eh]
    Vibrational G           3.036 [kcal/mol]       12.702 [kJ/mol]       0.00483794 [Eh]
  Correction G             -8.983 [kcal/mol]      -37.584 [kJ/mol]      -0.01431489 [Eh]
  Total G, Free enthalpy at  298.15 [K]                               -113.07978682 [Eh]

*** Psi4 exiting successfully. Buy a developer a beer!
