                               Psi4 1.3.2 release

  ==> Input File <==

--------------------------------------------------------------------------
set basis  6-31++G**
molecule {
0 1
   C        0.32153        0.81326        0.00000
   C       -0.86505       -0.12817        0.00000
   C        0.54353       -0.68508        0.00000
   H        0.53795        1.36069       -0.92039
   H        0.53795        1.36069        0.92039
   H       -1.44742       -0.21449        0.92034
   H       -1.44742       -0.21449       -0.92034
   H        0.90937       -1.14629       -0.92037
   H        0.90937       -1.14629        0.92037
}
energy('MP2')
frequencies('MP2')
--------------------------------------------------------------------------

    Molecular point group: cs
  Charge       = 0
  Multiplicity = 1
  Basis Set: 6-31++G**
    Blend: 6-31++G**
  Basis Set: (6-31++G** AUX)
    Blend: AUG-CC-PVDZ-JKFIT
  @DF-RHF Final Energy:  -117.06964565040306
    Total Energy =                       -117.0696456504030607
  Basis Set: (6-31++G** AUX)
    Blend: AUG-CC-PVDZ-RI
	 Reference Energy          =    -117.0696456504030607 [Eh]
	 Singles Energy            =      -0.0000000000000000 [Eh]
	 Same-Spin Energy          =      -0.1017274217192784 [Eh]
	 Opposite-Spin Energy      =      -0.3470429315475467 [Eh]
	 Correlation Energy        =      -0.4487703532668251 [Eh]
	 Total Energy              =    -117.5184160036698842 [Eh]
	 SCS Total Energy          =    -117.5200063088332030 [Eh]
    Molecular point group: cs
  Basis Set: 6-31++G**
    Blend: 6-31++G**
  Basis Set: (6-31++G** AUX)
    Blend: AUG-CC-PVDZ-JKFIT
  @DF-RHF Final Energy:  -117.06964565043563
    Total Energy =                       -117.0696456504356320
  Basis Set: (6-31++G** AUX)
  @DF-RHF Final Energy:  -117.06964565043563
    Total Energy =                       -117.0696456504356320
  @DF-RHF Final Energy:  -117.06964768030133
    Total Energy =                       -117.0696476803013297
  @DF-RHF Final Energy:  -117.06964235992022
    Total Energy =                       -117.0696423599202234
  @DF-RHF Final Energy:  -117.06965032432115
    Total Energy =                       -117.0696503243211453
  @DF-RHF Final Energy:  -117.06963920195891
    Total Energy =                       -117.0696392019589069
  @DF-RHF Final Energy:  -117.06963891135295
    Total Energy =                       -117.0696389113529534
  @DF-RHF Final Energy:  -117.06965029815645
    Total Energy =                       -117.0696502981564464
  @DF-RHF Final Energy:  -117.06964603898903
    Total Energy =                       -117.0696460389890348
  @DF-RHF Final Energy:  -117.06964364870103
    Total Energy =                       -117.0696436487010317
  @DF-RHF Final Energy:  -117.06964642154034
    Total Energy =                       -117.0696464215403410
  @DF-RHF Final Energy:  -117.06964235609598
    Total Energy =                       -117.0696423560959829
  @DF-RHF Final Energy:  -117.06964212308554
    Total Energy =                       -117.0696421230855435
  @DF-RHF Final Energy:  -117.06964654839732
    Total Energy =                       -117.0696465483973157
  @DF-RHF Final Energy:  -117.06966873932704
    Total Energy =                       -117.0696687393270423
  @DF-RHF Final Energy:  -117.06961977209502
    Total Energy =                       -117.0696197720950238
  @DF-RHF Final Energy:  -117.06968783934678
    Total Energy =                       -117.0696878393467841
  @DF-RHF Final Energy:  -117.06960030642951
    Total Energy =                       -117.0696003064295070
  @DF-RHF Final Energy:  -117.06956766724474
    Total Energy =                       -117.0695676672447405
  @DF-RHF Final Energy:  -117.06971639969743
    Total Energy =                       -117.0697163996974268
  @DF-RHF Final Energy:  -117.06959384162708
    Total Energy =                       -117.0695938416270820
  @DF-RHF Final Energy:  -117.06969413897869
    Total Energy =                       -117.0696941389786900
  @DF-RHF Final Energy:  -117.06971632447724
    Total Energy =                       -117.0697163244772412
  @DF-RHF Final Energy:  -117.06956774388614
    Total Energy =                       -117.0695677438861395
  @DF-RHF Final Energy:  -117.06956769760242
    Total Energy =                       -117.0695676976024231
  @DF-RHF Final Energy:  -117.06971637001422
    Total Energy =                       -117.0697163700142198
  @DF-RHF Final Energy:  -117.06964357996419
    Total Energy =                       -117.0696435799641932
  @DF-RHF Final Energy:  -117.06964335602075
    Total Energy =                       -117.0696433560207481
  @DF-RHF Final Energy:  -117.06964264439772
    Total Energy =                       -117.0696426443977174
  @DF-RHF Final Energy:  -117.06964475322678
    Total Energy =                       -117.0696447532267825
  @DF-RHF Final Energy:  -117.06964340359093
    Total Energy =                       -117.0696434035909306
  @DF-RHF Final Energy:  -117.06964353193895
    Total Energy =                       -117.0696435319389508
  @DF-RHF Final Energy:  -117.06964327702072
    Total Energy =                       -117.0696432770207167
  @DF-RHF Final Energy:  -117.06964496762026
    Total Energy =                       -117.0696449676202633
    Molecular point group: c1
  Charge       = 0
  Multiplicity = 1
  Basis Set: 6-31++G**
    Blend: 6-31++G**
  Basis Set: (6-31++G** AUX)
    Blend: AUG-CC-PVDZ-JKFIT

    Orbital Energies [Eh]
    ---------------------

    Doubly Occupied:

       1A    -11.230429     2A    -11.229478     3A    -11.229473
       4A     -1.126724     5A     -0.814651     6A     -0.814645
       7A     -0.663331     8A     -0.622353     9A     -0.510433
      10A     -0.510417    11A     -0.416682    12A     -0.416674

  @DF-RHF Final Energy:  -117.06964299797366

   => Energetics <=

    Nuclear Repulsion Energy =             75.2814718714328848
    One-Electron Energy =                -305.5316496692277610
    Two-Electron Energy =                 113.1805347998212312
    Total Energy =                       -117.0696429979736592

  Dipole Moment: [D]
     X:    -0.0001      Y:    -0.0001      Z:    -0.0007     Total:     0.0007

  Basis Set: (6-31++G** AUX)
    Blend: AUG-CC-PVDZ-RI
    Molecular point group: c1

    Geometry (in Angstrom), charge = 0, multiplicity = 1:

       Center              X                  Y                   Z               Mass
    ------------   -----------------  -----------------  -----------------  -----------------
         C            0.321531939855     0.813261460475     0.000000000000    12.000000000000
         C           -0.865048060145    -0.128168539525     0.000000000000    12.000000000000
         C            0.543531939855    -0.685078539525     0.000000000000    12.000000000000
         H            0.537951939855     1.360691460475    -0.920390000000     1.007825032230
         H            0.537951939855     1.360691460475     0.920390000000     1.007825032230
         H           -1.447418060145    -0.214488539525     0.919737951237     1.007825032230
         H           -1.447418060145    -0.214488539525    -0.920942048763     1.007825032230
         H            0.907830274543    -1.145679013968    -0.919767951237     1.007825032230
         H            0.910913605168    -1.146898065083     0.920972048763     1.007825032230

  Basis Set: 6-31++G**
    Blend: 6-31++G**
  Basis Set: (6-31++G** AUX)
    Blend: AUG-CC-PVDZ-JKFIT
  Basis Set: (6-31++G** AUX)
    Blend: AUG-CC-PVDZ-JKFIT
	 Reference Energy          =    -117.0696429979736592 [Eh]
	 Singles Energy            =      -0.0000000000000000 [Eh]
	 Same-Spin Energy          =      -0.1017274245039164 [Eh]
	 Opposite-Spin Energy      =      -0.3470429628922126 [Eh]
	 Correlation Energy        =      -0.4487703873961291 [Eh]
	 Total Energy              =    -117.5184133853697830 [Eh]

	 ================> DF-SCS-MP2 Energies <==================
	-----------------------------------------------------------
	 SCS Same-Spin Scale       =       0.3333333333333333 [-]
	 SCS Opposite-Spin Scale   =       1.2000000000000000 [-]
	 SCS Same-Spin Energy      =      -0.0339091415013055 [Eh]
	 SCS Opposite-Spin Energy  =      -0.4164515554706552 [Eh]
	 SCS Correlation Energy    =      -0.4503606969719606 [Eh]
	 SCS Total Energy          =    -117.5200036949456148 [Eh]
	-----------------------------------------------------------

  -Total Gradient:
     Atom            X                  Y                   Z
    ------   -----------------  -----------------  -----------------
       1        0.000203064654     0.000515075816     0.000005733847
       2       -0.000522151857    -0.000073907700     0.000450025025
       3        0.000342678058    -0.000423323829    -0.001256265703
       4        0.001755554398     0.004443945106    -0.007633810783
       5        0.001760357341     0.004456246751     0.007631018667
       6       -0.004563685438    -0.000702641693     0.007336214648
       7       -0.004919628053    -0.000708289157    -0.007908136365
       8        0.002597655850    -0.003388424923    -0.006938494968
       9        0.003346155047    -0.004118680369     0.008313715631

  Vibration                       7                   8                   9
  Freq [cm^-1]                 829.7010            829.7503            895.3441
  Irrep                          App                 App                  Ap
  Reduced mass [u]              1.0225              1.0225              4.3479
  Force const [mDyne/A]         0.4147              0.4148              2.0536

  Vibration                       10                  11                  12
  Freq [cm^-1]                 895.4970            934.8234           1146.1796
  Irrep                           Ap                 App                  Ap
  Reduced mass [u]              4.3444              1.0440              1.2051
  Force const [mDyne/A]         2.0526              0.5375              0.9328

  Vibration                       13                  14                  15
  Freq [cm^-1]                1146.2660           1155.2732           1223.8748
  Irrep                           Ap                  Ap                  Ap
  Reduced mass [u]              1.2049              1.4254              2.8851
  Force const [mDyne/A]         0.9328              1.1209              2.5462

  Vibration                       16                  17                  18
  Freq [cm^-1]                1224.7060           1264.2937           1264.3193
  Irrep                          App                 App                 App
  Reduced mass [u]              1.0078              1.4486              1.4486
  Force const [mDyne/A]         0.8906              1.3642              1.3643

  Vibration                       19                  20                  21
  Freq [cm^-1]                1534.6532           1534.8098           1583.9708
  Irrep                           Ap                  Ap                  Ap
  Reduced mass [u]              1.0902              1.0901              1.2773
  Force const [mDyne/A]         1.5127              1.5130              1.8882

  Vibration                       22                  23                  24
  Freq [cm^-1]                3111.2458           3111.3268           3120.2677
  Irrep                           Ap                  Ap                  Ap
  Reduced mass [u]              1.0503              1.0503              1.0657
  Force const [mDyne/A]         5.9903              5.9907              6.1134

  Vibration                       25                  26                  27
  Freq [cm^-1]                3201.1444           3201.2235           3219.9817
  Irrep                          App                 App                 App
  Reduced mass [u]              1.1201              1.1201              1.1162
  Force const [mDyne/A]         6.7625              6.7628              6.8186

  ==> Thermochemistry Components <==

  Entropy, S
    Electronic S            0.000 [cal/(mol K)]        0.000 [J/(mol K)]       0.00000000 [mEh/K] (multiplicity = 1)
    Translational S        37.135 [cal/(mol K)]      155.375 [J/(mol K)]       0.05917914 [mEh/K] (mol. weight = 42.0470 [u], P = 101325.00 [Pa])
    Rotational S           21.699 [cal/(mol K)]       90.789 [J/(mol K)]       0.03457982 [mEh/K] (symmetry no. = 1)
    Vibrational S           1.094 [cal/(mol K)]        4.579 [J/(mol K)]       0.00174413 [mEh/K]
  Total S                  59.929 [cal/(mol K)]      250.743 [J/(mol K)]       0.09550309 [mEh/K]
  Correction S              0.000 [cal/(mol K)]        0.000 [J/(mol K)]       0.00000000 [mEh/K]

  Constant volume heat capacity, Cv
    Electronic Cv           0.000 [cal/(mol K)]        0.000 [J/(mol K)]       0.00000000 [mEh/K]
    Translational Cv        2.981 [cal/(mol K)]       12.472 [J/(mol K)]       0.00475022 [mEh/K]
    Rotational Cv           2.981 [cal/(mol K)]       12.472 [J/(mol K)]       0.00475022 [mEh/K]
    Vibrational Cv          4.295 [cal/(mol K)]       17.971 [J/(mol K)]       0.00684482 [mEh/K]
  Total Cv                 10.257 [cal/(mol K)]       42.914 [J/(mol K)]       0.01634525 [mEh/K]
  Correction Cv             0.000 [cal/(mol K)]        0.000 [J/(mol K)]       0.00000000 [mEh/K]

  Constant pressure heat capacity, Cp
    Electronic Cp           0.000 [cal/(mol K)]        0.000 [J/(mol K)]       0.00000000 [mEh/K]
    Translational Cp        4.968 [cal/(mol K)]       20.786 [J/(mol K)]       0.00791703 [mEh/K]
    Rotational Cp           2.981 [cal/(mol K)]       12.472 [J/(mol K)]       0.00475022 [mEh/K]
    Vibrational Cp          4.295 [cal/(mol K)]       17.971 [J/(mol K)]       0.00684482 [mEh/K]
  Total Cp                 12.244 [cal/(mol K)]       51.229 [J/(mol K)]       0.01951206 [mEh/K]
  Correction Cp             0.000 [cal/(mol K)]        0.000 [J/(mol K)]       0.00000000 [mEh/K]

  ==> Thermochemistry Energy Analysis <==

  Raw electronic energy, E0
  Total E0, Electronic energy at well bottom at 0 [K]                 -117.51841600 [Eh]

  Zero-point energy, ZPE_vib = Sum_i nu_i / 2
    Electronic ZPE          0.000 [kcal/mol]        0.000 [kJ/mol]       0.00000000 [Eh]
    Translational ZPE       0.000 [kcal/mol]        0.000 [kJ/mol]       0.00000000 [Eh]
    Rotational ZPE          0.000 [kcal/mol]        0.000 [kJ/mol]       0.00000000 [Eh]
    Vibrational ZPE        52.077 [kcal/mol]      217.892 [kJ/mol]       0.08299058 [Eh]       18214.326 [cm^-1]
  Correction ZPE           52.077 [kcal/mol]      217.892 [kJ/mol]       0.08299058 [Eh]       18214.326 [cm^-1]
  Total ZPE, Electronic energy at 0 [K]                               -117.43542543 [Eh]

  Thermal Energy, E (includes ZPE)
    Electronic E            0.000 [kcal/mol]        0.000 [kJ/mol]       0.00000000 [Eh]
    Translational E         0.889 [kcal/mol]        3.718 [kJ/mol]       0.00141628 [Eh]
    Rotational E            0.889 [kcal/mol]        3.718 [kJ/mol]       0.00141628 [Eh]
    Vibrational E          52.346 [kcal/mol]      219.014 [kJ/mol]       0.08341808 [Eh]
  Correction E             54.123 [kcal/mol]      226.451 [kJ/mol]       0.08625063 [Eh]
  Total E, Electronic energy at  298.15 [K]                           -117.43216537 [Eh]

  Enthalpy, H_trans = E_trans + k_B * T
    Electronic H            0.000 [kcal/mol]        0.000 [kJ/mol]       0.00000000 [Eh]
    Translational H         1.481 [kcal/mol]        6.197 [kJ/mol]       0.00236046 [Eh]
    Rotational H            0.889 [kcal/mol]        3.718 [kJ/mol]       0.00141628 [Eh]
    Vibrational H          52.346 [kcal/mol]      219.014 [kJ/mol]       0.08341808 [Eh]
  Correction H             54.716 [kcal/mol]      228.930 [kJ/mol]       0.08719481 [Eh]
  Total H, Enthalpy at  298.15 [K]                                    -117.43122119 [Eh]

  Gibbs free energy, G = H - T * S
    Electronic G            0.000 [kcal/mol]        0.000 [kJ/mol]       0.00000000 [Eh]
    Translational G        -9.591 [kcal/mol]      -40.128 [kJ/mol]      -0.01528380 [Eh]
    Rotational G           -5.581 [kcal/mol]      -23.350 [kJ/mol]      -0.00889370 [Eh]
    Vibrational G          52.019 [kcal/mol]      217.649 [kJ/mol]       0.08289806 [Eh]
  Correction G             36.848 [kcal/mol]      154.171 [kJ/mol]       0.05872057 [Eh]
  Total G, Free enthalpy at  298.15 [K]                               -117.45969543 [Eh]

*** Psi4 exiting successfully. Buy a developer a beer!
