                               Psi4 1.3.2 release

  ==> Input File <==

--------------------------------------------------------------------------
set basis  6-311++G**
molecule {
0 1
   C        0.32153        0.81326        0.00000
   C       -0.86505       -0.12817        0.00000
   C        0.54353       -0.68508        0.00000
   H        0.53795        1.36069       -0.92039
   H        0.53795        1.36069        0.92039
   H       -1.44742       -0.21449        0.92034
   H       -1.44742       -0.21449       -0.92034
   H        0.90937       -1.14629       -0.92037
   H        0.90937       -1.14629        0.92037
}
energy('B3LYP')
frequencies('B3LYP')
--------------------------------------------------------------------------

    Molecular point group: cs
  Charge       = 0
  Multiplicity = 1
  Basis Set: 6-311++G**
    Blend: 6-311++G**
  Basis Set: (6-311++G** AUX)
    Blend: AUG-CC-PVTZ-JKFIT
  @DF-RKS Final Energy:  -117.93055761155478
    Total Energy =                       -117.9305576115547751
    Molecular point group: cs
  Basis Set: 6-311++G**
    Blend: 6-311++G**
  Basis Set: (6-311++G** AUX)
    Blend: AUG-CC-PVTZ-JKFIT
  @DF-RKS Final Energy:  -117.93055761155111
    Total Energy =                       -117.9305576115511087
  Basis Set: 6-311++G**
    Blend: 6-311++G**
  Basis Set: (6-311++G** AUX)
    Blend: AUG-CC-PVTZ-JKFIT
  Basis Set: 6-311++G**
    Blend: 6-311++G**
  Basis Set: (6-311++G** AUX)
    Blend: AUG-CC-PVTZ-JKFIT
  @DF-RKS Final Energy:  -117.93055761155017
    Total Energy =                       -117.9305576115501708
  Basis Set: 6-311++G**
  @DF-RKS Final Energy:  -117.93055851895964
    Total Energy =                       -117.9305585189596570
  @DF-RKS Final Energy:  -117.93056174970199
    Total Energy =                       -117.9305617497019938
  @DF-RKS Final Energy:  -117.93055772682145
    Total Energy =                       -117.9305577268214478
  @DF-RKS Final Energy:  -117.93055907782231
    Total Energy =                       -117.9305590778223092
  @DF-RKS Final Energy:  -117.93055687771269
    Total Energy =                       -117.9305568777126894
  @DF-RKS Final Energy:  -117.93055557529712
    Total Energy =                       -117.9305555752971202
  @DF-RKS Final Energy:  -117.93055770750949
    Total Energy =                       -117.9305577075094931
  @DF-RKS Final Energy:  -117.93056183884889
    Total Energy =                       -117.9305618388488881
  @DF-RKS Final Energy:  -117.93055770222159
    Total Energy =                       -117.9305577022215914
  @DF-RKS Final Energy:  -117.93055570631388
    Total Energy =                       -117.9305557063138821
  @DF-RKS Final Energy:  -117.93055583519684
    Total Energy =                       -117.9305558351968415
  @DF-RKS Final Energy:  -117.93055722467778
    Total Energy =                       -117.9305572246777842
  @DF-RKS Final Energy:  -117.93056966085170
    Total Energy =                       -117.9305696608517025
  @DF-RKS Final Energy:  -117.93054922529740
    Total Energy =                       -117.9305492252973977
  @DF-RKS Final Energy:  -117.93057526476167
    Total Energy =                       -117.9305752647616714
  @DF-RKS Final Energy:  -117.93053617773543
    Total Energy =                       -117.9305361777354335
  @DF-RKS Final Energy:  -117.93051496761439
    Total Energy =                       -117.9305149676143856
  @DF-RKS Final Energy:  -117.93059351262097
    Total Energy =                       -117.9305935126209732
  @DF-RKS Final Energy:  -117.93053961779377
    Total Energy =                       -117.9305396177937695
  @DF-RKS Final Energy:  -117.93058477003528
    Total Energy =                       -117.9305847700352814
  @DF-RKS Final Energy:  -117.93059341350347
    Total Energy =                       -117.9305934135034732
  @DF-RKS Final Energy:  -117.93051506740642
    Total Energy =                       -117.9305150674064180
  @DF-RKS Final Energy:  -117.93051501980490
    Total Energy =                       -117.9305150198049006
  @DF-RKS Final Energy:  -117.93059346145951
    Total Energy =                       -117.9305934614595088
  @DF-RKS Final Energy:  -117.93055569240551
    Total Energy =                       -117.9305556924055054
  @DF-RKS Final Energy:  -117.93055550786146
    Total Energy =                       -117.9305555078614560
  @DF-RKS Final Energy:  -117.93055486360173
    Total Energy =                       -117.9305548636017278
  @DF-RKS Final Energy:  -117.93055670266122
    Total Energy =                       -117.9305567026612067
  @DF-RKS Final Energy:  -117.93055565143889
    Total Energy =                       -117.9305556514388940
  @DF-RKS Final Energy:  -117.93055545198357
    Total Energy =                       -117.9305554519835653
  @DF-RKS Final Energy:  -117.93055541213985
    Total Energy =                       -117.9305554121398529
  Basis Set: (6-311++G** AUX)
    Blend: AUG-CC-PVTZ-JKFIT
  Basis Set: 6-311++G**
    Blend: 6-311++G**
  Basis Set: (6-311++G** AUX)
    Blend: AUG-CC-PVTZ-JKFIT
  @DF-RKS Final Energy:  -117.93055706598665
    Total Energy =                       -117.9305570659866476
  Basis Set: 6-311++G**
    Blend: 6-311++G**
  Basis Set: (6-311++G** AUX)
    Blend: AUG-CC-PVTZ-JKFIT
    Molecular point group: c1
  Charge       = 0
  Multiplicity = 1
  Basis Set: 6-311++G**
    Blend: 6-311++G**
  Basis Set: (6-311++G** AUX)
    Blend: AUG-CC-PVTZ-JKFIT

    Orbital Energies [Eh]
    ---------------------

    Doubly Occupied:

       1A    -10.173753     2A    -10.173387     3A    -10.173382
       4A     -0.848923     5A     -0.597034     6A     -0.597029
       7A     -0.494495     8A     -0.465798     9A     -0.366104
      10A     -0.366091    11A     -0.297721    12A     -0.297715

  @DF-RKS Final Energy:  -117.93055532205436

   => Energetics <=

    Nuclear Repulsion Energy =             75.2814718714328848
    One-Electron Energy =                -305.9422134150034935
    Two-Electron Energy =                 127.7190944354727264
    DFT Exchange-Correlation Energy =     -14.9889082139564671
    Empirical Dispersion Energy =           0.0000000000000000
    VV10 Nonlocal Energy =                  0.0000000000000000
    Total Energy =                       -117.9305553220543601

  Dipole Moment: [D]
     X:    -0.0001      Y:    -0.0001      Z:    -0.0007     Total:     0.0007

    Molecular point group: c1

    Geometry (in Angstrom), charge = 0, multiplicity = 1:

       Center              X                  Y                   Z               Mass
    ------------   -----------------  -----------------  -----------------  -----------------
         C            0.321531939855     0.813261460475     0.000000000000    12.000000000000
         C           -0.865048060145    -0.128168539525     0.000000000000    12.000000000000
         C            0.543531939855    -0.685078539525     0.000000000000    12.000000000000
         H            0.537951939855     1.360691460475    -0.920390000000     1.007825032230
         H            0.537951939855     1.360691460475     0.920390000000     1.007825032230
         H           -1.447418060145    -0.214488539525     0.919737951237     1.007825032230
         H           -1.447418060145    -0.214488539525    -0.920942048763     1.007825032230
         H            0.907830274543    -1.145679013968    -0.919767951237     1.007825032230
         H            0.910913605168    -1.146898065083     0.920972048763     1.007825032230

  Basis Set: 6-311++G**
    Blend: 6-311++G**
  Basis Set: (6-311++G** AUX)
    Blend: AUG-CC-PVTZ-JKFIT

  -Total Gradient:
     Atom            X                  Y                   Z
    ------   -----------------  -----------------  -----------------
       1       -0.000161381756    -0.000392411178     0.000004204776
       2        0.000446813919     0.000068965417     0.000425086376
       3       -0.000263118781     0.000341410616    -0.001191336895
       4        0.000955590861     0.002421033413    -0.005573950070
       5        0.000961009158     0.002433592315     0.005571849049
       6       -0.002421149398    -0.000383833228     0.005294059533
       7       -0.002757400278    -0.000390284708    -0.005832969163
       8        0.001268562918    -0.001702228168    -0.004915922369
       9        0.001972360735    -0.002395734651     0.006218989898

  Vibration                       7                   8                   9
  Freq [cm^-1]                 788.6296            788.7517            863.1997
  Irrep                          App                 App                  Ap
  Reduced mass [u]              1.0213              1.0213              4.1952
  Force const [mDyne/A]         0.3742              0.3744              1.8417

  Vibration                       10                  11                  12
  Freq [cm^-1]                 864.8653            899.4083           1072.1110
  Irrep                           Ap                 App                  Ap
  Reduced mass [u]              4.2218              1.0442              1.2172
  Force const [mDyne/A]         1.8606              0.4977              0.8243

  Vibration                       13                  14                  15
  Freq [cm^-1]                1075.2038           1108.5342           1167.6731
  Irrep                           Ap                  Ap                 App
  Reduced mass [u]              1.2206              1.4254              1.0078
  Force const [mDyne/A]         0.8314              1.0320              0.8096

  Vibration                       16                  17                  18
  Freq [cm^-1]                1194.6929           1223.7728           1223.8700
  Irrep                           Ap                 App                 App
  Reduced mass [u]              2.8862              1.4507              1.4506
  Force const [mDyne/A]         2.4271              1.2800              1.2802

  Vibration                       19                  20                  21
  Freq [cm^-1]                1480.0378           1480.3069           1524.1509
  Irrep                           Ap                  Ap                  Ap
  Reduced mass [u]              1.0884              1.0890              1.2827
  Force const [mDyne/A]         1.4047              1.4059              1.7556

  Vibration                       22                  23                  24
  Freq [cm^-1]                3038.5216           3038.5829           3046.0599
  Irrep                           Ap                  Ap                  Ap
  Reduced mass [u]              1.0496              1.0496              1.0619
  Force const [mDyne/A]         5.7093              5.7100              5.8050

  Vibration                       25                  26                  27
  Freq [cm^-1]                3113.7710           3113.7975           3136.1383
  Irrep                          App                 App                 App
  Reduced mass [u]              1.1202              1.1202              1.1160
  Force const [mDyne/A]         6.3992              6.3994              6.4670

  ==> Thermochemistry Components <==

  Entropy, S
    Electronic S            0.000 [cal/(mol K)]        0.000 [J/(mol K)]       0.00000000 [mEh/K] (multiplicity = 1)
    Translational S        37.135 [cal/(mol K)]      155.375 [J/(mol K)]       0.05917914 [mEh/K] (mol. weight = 42.0470 [u], P = 101325.00 [Pa])
    Rotational S           21.699 [cal/(mol K)]       90.789 [J/(mol K)]       0.03457982 [mEh/K] (symmetry no. = 1)
    Vibrational S           1.295 [cal/(mol K)]        5.419 [J/(mol K)]       0.00206415 [mEh/K]
  Total S                  60.130 [cal/(mol K)]      251.584 [J/(mol K)]       0.09582311 [mEh/K]
  Correction S              0.000 [cal/(mol K)]        0.000 [J/(mol K)]       0.00000000 [mEh/K]

  Constant volume heat capacity, Cv
    Electronic Cv           0.000 [cal/(mol K)]        0.000 [J/(mol K)]       0.00000000 [mEh/K]
    Translational Cv        2.981 [cal/(mol K)]       12.472 [J/(mol K)]       0.00475022 [mEh/K]
    Rotational Cv           2.981 [cal/(mol K)]       12.472 [J/(mol K)]       0.00475022 [mEh/K]
    Vibrational Cv          4.867 [cal/(mol K)]       20.362 [J/(mol K)]       0.00775531 [mEh/K]
  Total Cv                 10.828 [cal/(mol K)]       45.305 [J/(mol K)]       0.01725574 [mEh/K]
  Correction Cv             0.000 [cal/(mol K)]        0.000 [J/(mol K)]       0.00000000 [mEh/K]

  Constant pressure heat capacity, Cp
    Electronic Cp           0.000 [cal/(mol K)]        0.000 [J/(mol K)]       0.00000000 [mEh/K]
    Translational Cp        4.968 [cal/(mol K)]       20.786 [J/(mol K)]       0.00791703 [mEh/K]
    Rotational Cp           2.981 [cal/(mol K)]       12.472 [J/(mol K)]       0.00475022 [mEh/K]
    Vibrational Cp          4.867 [cal/(mol K)]       20.362 [J/(mol K)]       0.00775531 [mEh/K]
  Total Cp                 12.815 [cal/(mol K)]       53.619 [J/(mol K)]       0.02042255 [mEh/K]
  Correction Cp             0.000 [cal/(mol K)]        0.000 [J/(mol K)]       0.00000000 [mEh/K]

  ==> Thermochemistry Energy Analysis <==

  Raw electronic energy, E0
  Total E0, Electronic energy at well bottom at 0 [K]                 -117.93055761 [Eh]

  Zero-point energy, ZPE_vib = Sum_i nu_i / 2
    Electronic ZPE          0.000 [kcal/mol]        0.000 [kJ/mol]       0.00000000 [Eh]
    Translational ZPE       0.000 [kcal/mol]        0.000 [kJ/mol]       0.00000000 [Eh]
    Rotational ZPE          0.000 [kcal/mol]        0.000 [kJ/mol]       0.00000000 [Eh]
    Vibrational ZPE        50.381 [kcal/mol]      210.794 [kJ/mol]       0.08028736 [Eh]       17621.039 [cm^-1]
  Correction ZPE           50.381 [kcal/mol]      210.794 [kJ/mol]       0.08028736 [Eh]       17621.039 [cm^-1]
  Total ZPE, Electronic energy at 0 [K]                               -117.85027025 [Eh]

  Thermal Energy, E (includes ZPE)
    Electronic E            0.000 [kcal/mol]        0.000 [kJ/mol]       0.00000000 [Eh]
    Translational E         0.889 [kcal/mol]        3.718 [kJ/mol]       0.00141628 [Eh]
    Rotational E            0.889 [kcal/mol]        3.718 [kJ/mol]       0.00141628 [Eh]
    Vibrational E          50.696 [kcal/mol]      212.114 [kJ/mol]       0.08078978 [Eh]
  Correction E             52.474 [kcal/mol]      219.550 [kJ/mol]       0.08362233 [Eh]
  Total E, Electronic energy at  298.15 [K]                           -117.84693528 [Eh]

  Enthalpy, H_trans = E_trans + k_B * T
    Electronic H            0.000 [kcal/mol]        0.000 [kJ/mol]       0.00000000 [Eh]
    Translational H         1.481 [kcal/mol]        6.197 [kJ/mol]       0.00236046 [Eh]
    Rotational H            0.889 [kcal/mol]        3.718 [kJ/mol]       0.00141628 [Eh]
    Vibrational H          50.696 [kcal/mol]      212.114 [kJ/mol]       0.08078978 [Eh]
  Correction H             53.066 [kcal/mol]      222.029 [kJ/mol]       0.08456652 [Eh]
  Total H, Enthalpy at  298.15 [K]                                    -117.84599109 [Eh]

  Gibbs free energy, G = H - T * S
    Electronic G            0.000 [kcal/mol]        0.000 [kJ/mol]       0.00000000 [Eh]
    Translational G        -9.591 [kcal/mol]      -40.128 [kJ/mol]      -0.01528380 [Eh]
    Rotational G           -5.581 [kcal/mol]      -23.350 [kJ/mol]      -0.00889370 [Eh]
    Vibrational G          50.310 [kcal/mol]      210.498 [kJ/mol]       0.08017435 [Eh]
  Correction G             35.139 [kcal/mol]      147.020 [kJ/mol]       0.05599686 [Eh]
  Total G, Free enthalpy at  298.15 [K]                               -117.87456075 [Eh]

*** Psi4 exiting successfully. Buy a developer a beer!
