                               Psi4 1.3.2 release

  ==> Input File <==

--------------------------------------------------------------------------
set basis  cc-pVTZ
molecule {
0 1
   O        0.00000        0.00000       -0.06797
   H        0.74903        0.00000        0.53936
   H       -0.74903        0.00000        0.53936
}
energy('CCSD')
frequencies('CCSD')

--------------------------------------------------------------------------

    Molecular point group: c2v
  Charge       = 0
  Multiplicity = 1
  Basis Set: CC-PVTZ
    Blend: CC-PVTZ
  @RHF Final Energy:   -76.05632601465219
    Total Energy =                        -76.0563260146521856
      * MP2 total energy                      =  -76.332124671935276
      * CCSD total energy                     =  -76.337787089296100
    Molecular point group: c2v
  Basis Set: CC-PVTZ
    Blend: CC-PVTZ
  @RHF Final Energy:   -76.05632601465231
    Total Energy =                        -76.0563260146523135
      * MP2 total energy                      =  -76.332124672279193
      * CCSD total energy                     =  -76.337787090672649
  Basis Set: CC-PVTZ
    Blend: CC-PVTZ
  @RHF Final Energy:   -76.05632601465236
    Total Energy =                        -76.0563260146523703
      * MP2 total energy                      =  -76.332124672279235
      * CCSD total energy                     =  -76.337787090356727
  Basis Set: CC-PVTZ
    Blend: CC-PVTZ
  @RHF Final Energy:   -76.05617925873229
    Total Energy =                        -76.0561792587322856
      * MP2 total energy                      =  -76.332081052103845
      * CCSD total energy                     =  -76.337731222821759
  Basis Set: CC-PVTZ
    Blend: CC-PVTZ
  @RHF Final Energy:   -76.05646580562835
    Total Energy =                        -76.0564658056283349
      * MP2 total energy                      =  -76.332161831882942
      * CCSD total energy                     =  -76.337836417595796
  Basis Set: CC-PVTZ
    Blend: CC-PVTZ
  @RHF Final Energy:   -76.05642627929558
    Total Energy =                        -76.0564262792955788
      * MP2 total energy                      =  -76.332141673908765
      * CCSD total energy                     =  -76.337811993446778
  Basis Set: CC-PVTZ
    Blend: CC-PVTZ
  @RHF Final Energy:   -76.05621568323413
    Total Energy =                        -76.0562156832341287
      * MP2 total energy                      =  -76.332097878072702
      * CCSD total energy                     =  -76.337752392135812
    Molecular point group: cs
  Charge       = 0
  Multiplicity = 1
  Basis Set: CC-PVTZ
    Blend: CC-PVTZ

    Orbital Energies [Eh]
    ---------------------

    Doubly Occupied:

       1Ap   -20.557263     2Ap    -1.344000     3Ap    -0.700972
       4Ap    -0.581518     1App   -0.504770

  @RHF Final Energy:   -76.05631887239353

   => Energetics <=

    Nuclear Repulsion Energy =              9.1334682877742281
    One-Electron Energy =                -123.0025279579222257
    Two-Electron Energy =                  37.8127407977544721
    Total Energy =                        -76.0563188723935326

  Dipole Moment: [D]
     X:     0.0030      Y:     0.0000      Z:     2.0715     Total:     2.0715

      * MP2 total energy                      =  -76.332117484282676
      * CCSD total energy                     =  -76.337779996592658
    Molecular point group: cs

    Geometry (in Bohr), charge = 0, multiplicity = 1:

       Center              X                  Y                   Z
    ------------   -----------------  -----------------  -----------------
         O           -0.000332326610     0.000000000000    -0.128443286339
         H            1.418098691984     0.000000000000     1.021382326257
         H           -1.412824427519     0.000000000000     1.017105836614

  -Total gradient:
     Atom            X                  Y                   Z
    ------   -----------------  -----------------  -----------------
       1       -0.003024220418     0.000000000000    -0.014058712583
       2        0.005735122105     0.000000000000     0.008247041202
       3       -0.002710901687     0.000000000000     0.005811671381

  Vibration                       7                   8                   9
  Freq [cm^-1]                1713.8290           3785.3772           3872.4917
  Irrep                           A1                  A1                  B1
  Reduced mass [u]              1.0817              1.0461              1.0793
  Force const [mDyne/A]         1.8719              8.8317              9.5360

  ==> Thermochemistry Components <==

  Entropy, S
    Electronic S            0.000 [cal/(mol K)]        0.000 [J/(mol K)]       0.00000000 [mEh/K] (multiplicity = 1)
    Translational S        34.608 [cal/(mol K)]      144.801 [J/(mol K)]       0.05515177 [mEh/K] (mol. weight = 18.0106 [u], P = 101325.00 [Pa])
    Rotational S           10.508 [cal/(mol K)]       43.968 [J/(mol K)]       0.01674635 [mEh/K] (symmetry no. = 2)
    Vibrational S           0.005 [cal/(mol K)]        0.020 [J/(mol K)]       0.00000752 [mEh/K]
  Total S                  45.121 [cal/(mol K)]      188.788 [J/(mol K)]       0.07190564 [mEh/K]
  Correction S              0.000 [cal/(mol K)]        0.000 [J/(mol K)]       0.00000000 [mEh/K]

  Constant volume heat capacity, Cv
    Electronic Cv           0.000 [cal/(mol K)]        0.000 [J/(mol K)]       0.00000000 [mEh/K]
    Translational Cv        2.981 [cal/(mol K)]       12.472 [J/(mol K)]       0.00475022 [mEh/K]
    Rotational Cv           2.981 [cal/(mol K)]       12.472 [J/(mol K)]       0.00475022 [mEh/K]
    Vibrational Cv          0.035 [cal/(mol K)]        0.146 [J/(mol K)]       0.00005550 [mEh/K]
  Total Cv                  5.996 [cal/(mol K)]       25.089 [J/(mol K)]       0.00955593 [mEh/K]
  Correction Cv             0.000 [cal/(mol K)]        0.000 [J/(mol K)]       0.00000000 [mEh/K]

  Constant pressure heat capacity, Cp
    Electronic Cp           0.000 [cal/(mol K)]        0.000 [J/(mol K)]       0.00000000 [mEh/K]
    Translational Cp        4.968 [cal/(mol K)]       20.786 [J/(mol K)]       0.00791703 [mEh/K]
    Rotational Cp           2.981 [cal/(mol K)]       12.472 [J/(mol K)]       0.00475022 [mEh/K]
    Vibrational Cp          0.035 [cal/(mol K)]        0.146 [J/(mol K)]       0.00005550 [mEh/K]
  Total Cp                  7.984 [cal/(mol K)]       33.404 [J/(mol K)]       0.01272274 [mEh/K]
  Correction Cp             0.000 [cal/(mol K)]        0.000 [J/(mol K)]       0.00000000 [mEh/K]

  ==> Thermochemistry Energy Analysis <==

  Raw electronic energy, E0
  Total E0, Electronic energy at well bottom at 0 [K]                  -76.33778709 [Eh]

  Zero-point energy, ZPE_vib = Sum_i nu_i / 2
    Electronic ZPE          0.000 [kcal/mol]        0.000 [kJ/mol]       0.00000000 [Eh]
    Translational ZPE       0.000 [kcal/mol]        0.000 [kJ/mol]       0.00000000 [Eh]
    Rotational ZPE          0.000 [kcal/mol]        0.000 [kJ/mol]       0.00000000 [Eh]
    Vibrational ZPE        13.398 [kcal/mol]       56.055 [kJ/mol]       0.02135030 [Eh]        4685.849 [cm^-1]
  Correction ZPE           13.398 [kcal/mol]       56.055 [kJ/mol]       0.02135030 [Eh]        4685.849 [cm^-1]
  Total ZPE, Electronic energy at 0 [K]                                -76.31643679 [Eh]

  Thermal Energy, E (includes ZPE)
    Electronic E            0.000 [kcal/mol]        0.000 [kJ/mol]       0.00000000 [Eh]
    Translational E         0.889 [kcal/mol]        3.718 [kJ/mol]       0.00141628 [Eh]
    Rotational E            0.889 [kcal/mol]        3.718 [kJ/mol]       0.00141628 [Eh]
    Vibrational E          13.399 [kcal/mol]       56.060 [kJ/mol]       0.02135230 [Eh]
  Correction E             15.176 [kcal/mol]       63.497 [kJ/mol]       0.02418485 [Eh]
  Total E, Electronic energy at  298.15 [K]                            -76.31360224 [Eh]

  Enthalpy, H_trans = E_trans + k_B * T
    Electronic H            0.000 [kcal/mol]        0.000 [kJ/mol]       0.00000000 [Eh]
    Translational H         1.481 [kcal/mol]        6.197 [kJ/mol]       0.00236046 [Eh]
    Rotational H            0.889 [kcal/mol]        3.718 [kJ/mol]       0.00141628 [Eh]
    Vibrational H          13.399 [kcal/mol]       56.060 [kJ/mol]       0.02135230 [Eh]
  Correction H             15.769 [kcal/mol]       65.976 [kJ/mol]       0.02512904 [Eh]
  Total H, Enthalpy at  298.15 [K]                                     -76.31265805 [Eh]

  Gibbs free energy, G = H - T * S
    Electronic G            0.000 [kcal/mol]        0.000 [kJ/mol]       0.00000000 [Eh]
    Translational G        -8.837 [kcal/mol]      -36.975 [kJ/mol]      -0.01408304 [Eh]
    Rotational G           -2.244 [kcal/mol]       -9.390 [kJ/mol]      -0.00357665 [Eh]
    Vibrational G          13.397 [kcal/mol]       56.055 [kJ/mol]       0.02135006 [Eh]
  Correction G              2.316 [kcal/mol]        9.689 [kJ/mol]       0.00369037 [Eh]
  Total G, Free enthalpy at  298.15 [K]                                -76.33409672 [Eh]

*** Psi4 exiting successfully. Buy a developer a beer!
