                               Psi4 1.3.2 release

  ==> Input File <==

--------------------------------------------------------------------------
set basis  6-311++G**
molecule {
0 1
   O        0.00000        0.00000        0.49152
   C        0.00000        0.00000       -0.65516
}
energy('m06-2x')
frequencies('m06-2x')
--------------------------------------------------------------------------

    Molecular point group: c2v
  Charge       = 0
  Multiplicity = 1
  Basis Set: 6-311++G**
    Blend: 6-311++G**
  Basis Set: (6-311++G** AUX)
    Blend: AUG-CC-PVTZ-JKFIT
  @DF-RKS Final Energy:  -113.30851392007474
    Total Energy =                       -113.3085139200747307
    Molecular point group: c2v
  Basis Set: 6-311++G**
    Blend: 6-311++G**
  Basis Set: (6-311++G** AUX)
    Blend: AUG-CC-PVTZ-JKFIT
  @DF-RKS Final Energy:  -113.30851392030441
    Total Energy =                       -113.3085139203044065
  Basis Set: 6-311++G**
    Blend: 6-311++G**
  Basis Set: (6-311++G** AUX)
    Blend: AUG-CC-PVTZ-JKFIT
  Basis Set: 6-311++G**
    Blend: 6-311++G**
  Basis Set: (6-311++G** AUX)
    Blend: AUG-CC-PVTZ-JKFIT
  @DF-RKS Final Energy:  -113.30851392030441
    Total Energy =                       -113.3085139203044065
  Basis Set: 6-311++G**
  @DF-RKS Final Energy:  -113.30862197293715
    Total Energy =                       -113.3086219729371464
  @DF-RKS Final Energy:  -113.30840169844397
    Total Energy =                       -113.3084016984439728
  Basis Set: (6-311++G** AUX)
    Blend: AUG-CC-PVTZ-JKFIT
  Basis Set: 6-311++G**
    Blend: 6-311++G**
  Basis Set: (6-311++G** AUX)
    Blend: AUG-CC-PVTZ-JKFIT
  @DF-RKS Final Energy:  -113.30851387178832
    Total Energy =                       -113.3085138717883211
  Basis Set: 6-311++G**
    Blend: 6-311++G**
  Basis Set: (6-311++G** AUX)
    Blend: AUG-CC-PVTZ-JKFIT
    Molecular point group: cs
  Charge       = 0
  Multiplicity = 1
  Basis Set: 6-311++G**
    Blend: 6-311++G**
  Basis Set: (6-311++G** AUX)
    Blend: AUG-CC-PVTZ-JKFIT

    Orbital Energies [Eh]
    ---------------------

    Doubly Occupied:

       1Ap   -19.737817     2Ap   -10.669796     3Ap    -1.286538
       4Ap    -0.675094     1App   -0.551031     5Ap    -0.551031
       6Ap    -0.454337

  @DF-RKS Final Energy:  -113.30851387177941

   => Energetics <=

    Nuclear Repulsion Energy =             22.1513379928885605
    One-Electron Energy =                -197.5610797435190022
    Two-Electron Energy =                  68.7631307592035910
    DFT Exchange-Correlation Energy =      -6.6619028803525708
    Empirical Dispersion Energy =           0.0000000000000000
    VV10 Nonlocal Energy =                  0.0000000000000000
    Total Energy =                       -113.3085138717794251

  Dipole Moment: [D]
     X:     0.0000      Y:     0.0001      Z:    -0.0872     Total:     0.0872

    Molecular point group: cs

    Geometry (in Angstrom), charge = 0, multiplicity = 1:

       Center              X                  Y                   Z               Mass
    ------------   -----------------  -----------------  -----------------  -----------------
         O            0.000000000000    -0.000433142923     0.491523556581    15.994914619570
         C            0.000000000000     0.000577340340    -0.655156443419    12.000000000000

  Basis Set: 6-311++G**
    Blend: 6-311++G**
  Basis Set: (6-311++G** AUX)
    Blend: AUG-CC-PVTZ-JKFIT

  -Total Gradient:
     Atom            X                  Y                   Z
    ------   -----------------  -----------------  -----------------
       1        0.000000000000    -0.000050794385     0.057640643794
       2        0.000000000000     0.000050814605    -0.057663588455

  Vibration                       4                   5                   6
  Freq [cm^-1]                 320.2252            320.2252           2098.7682
  Irrep                           B1                  B2                  A1
  Reduced mass [u]             13.4388             13.4388             13.4388
  Force const [mDyne/A]         0.8119              0.8119             34.8769

  ==> Thermochemistry Components <==

  Entropy, S
    Electronic S            0.000 [cal/(mol K)]        0.000 [J/(mol K)]       0.00000000 [mEh/K] (multiplicity = 1)
    Translational S        35.923 [cal/(mol K)]      150.302 [J/(mol K)]       0.05724692 [mEh/K] (mol. weight = 27.9949 [u], P = 101325.00 [Pa])
    Rotational S           11.343 [cal/(mol K)]       47.458 [J/(mol K)]       0.01807582 [mEh/K] (symmetry no. = 1)
    Vibrational S           2.619 [cal/(mol K)]       10.957 [J/(mol K)]       0.00417330 [mEh/K]
  Total S                  49.885 [cal/(mol K)]      208.717 [J/(mol K)]       0.07949605 [mEh/K]
  Correction S              0.000 [cal/(mol K)]        0.000 [J/(mol K)]       0.00000000 [mEh/K]

  Constant volume heat capacity, Cv
    Electronic Cv           0.000 [cal/(mol K)]        0.000 [J/(mol K)]       0.00000000 [mEh/K]
    Translational Cv        2.981 [cal/(mol K)]       12.472 [J/(mol K)]       0.00475022 [mEh/K]
    Rotational Cv           1.987 [cal/(mol K)]        8.314 [J/(mol K)]       0.00316681 [mEh/K]
    Vibrational Cv          3.278 [cal/(mol K)]       13.714 [J/(mol K)]       0.00522356 [mEh/K]
  Total Cv                  8.246 [cal/(mol K)]       34.501 [J/(mol K)]       0.01314058 [mEh/K]
  Correction Cv             0.000 [cal/(mol K)]        0.000 [J/(mol K)]       0.00000000 [mEh/K]

  Constant pressure heat capacity, Cp
    Electronic Cp           0.000 [cal/(mol K)]        0.000 [J/(mol K)]       0.00000000 [mEh/K]
    Translational Cp        4.968 [cal/(mol K)]       20.786 [J/(mol K)]       0.00791703 [mEh/K]
    Rotational Cp           1.987 [cal/(mol K)]        8.314 [J/(mol K)]       0.00316681 [mEh/K]
    Vibrational Cp          3.278 [cal/(mol K)]       13.714 [J/(mol K)]       0.00522356 [mEh/K]
  Total Cp                 10.233 [cal/(mol K)]       42.815 [J/(mol K)]       0.01630739 [mEh/K]
  Correction Cp             0.000 [cal/(mol K)]        0.000 [J/(mol K)]       0.00000000 [mEh/K]

  ==> Thermochemistry Energy Analysis <==

  Raw electronic energy, E0
  Total E0, Electronic energy at well bottom at 0 [K]                 -113.30851392 [Eh]

  Zero-point energy, ZPE_vib = Sum_i nu_i / 2
    Electronic ZPE          0.000 [kcal/mol]        0.000 [kJ/mol]       0.00000000 [Eh]
    Translational ZPE       0.000 [kcal/mol]        0.000 [kJ/mol]       0.00000000 [Eh]
    Rotational ZPE          0.000 [kcal/mol]        0.000 [kJ/mol]       0.00000000 [Eh]
    Vibrational ZPE         3.916 [kcal/mol]       16.384 [kJ/mol]       0.00624040 [Eh]        1369.609 [cm^-1]
  Correction ZPE            3.916 [kcal/mol]       16.384 [kJ/mol]       0.00624040 [Eh]        1369.609 [cm^-1]
  Total ZPE, Electronic energy at 0 [K]                               -113.30227352 [Eh]

  Thermal Energy, E (includes ZPE)
    Electronic E            0.000 [kcal/mol]        0.000 [kJ/mol]       0.00000000 [Eh]
    Translational E         0.889 [kcal/mol]        3.718 [kJ/mol]       0.00141628 [Eh]
    Rotational E            0.592 [kcal/mol]        2.479 [kJ/mol]       0.00094418 [Eh]
    Vibrational E           4.412 [kcal/mol]       18.462 [kJ/mol]       0.00703172 [Eh]
  Correction E              5.894 [kcal/mol]       24.659 [kJ/mol]       0.00939219 [Eh]
  Total E, Electronic energy at  298.15 [K]                           -113.29912174 [Eh]

  Enthalpy, H_trans = E_trans + k_B * T
    Electronic H            0.000 [kcal/mol]        0.000 [kJ/mol]       0.00000000 [Eh]
    Translational H         1.481 [kcal/mol]        6.197 [kJ/mol]       0.00236046 [Eh]
    Rotational H            0.592 [kcal/mol]        2.479 [kJ/mol]       0.00094418 [Eh]
    Vibrational H           4.412 [kcal/mol]       18.462 [kJ/mol]       0.00703172 [Eh]
  Correction H              6.486 [kcal/mol]       27.138 [kJ/mol]       0.01033637 [Eh]
  Total H, Enthalpy at  298.15 [K]                                    -113.29817755 [Eh]

  Gibbs free energy, G = H - T * S
    Electronic G            0.000 [kcal/mol]        0.000 [kJ/mol]       0.00000000 [Eh]
    Translational G        -9.229 [kcal/mol]      -38.615 [kJ/mol]      -0.01470771 [Eh]
    Rotational G           -2.789 [kcal/mol]      -11.671 [kJ/mol]      -0.00444512 [Eh]
    Vibrational G           3.632 [kcal/mol]       15.195 [kJ/mol]       0.00578745 [Eh]
  Correction G             -8.387 [kcal/mol]      -35.091 [kJ/mol]      -0.01336538 [Eh]
  Total G, Free enthalpy at  298.15 [K]                               -113.32187930 [Eh]

*** Psi4 exiting successfully. Buy a developer a beer!
