                               Psi4 1.3.2 release

  ==> Input File <==

--------------------------------------------------------------------------
set basis  aug-cc-pVDZ
molecule {
0 1
   C        0.32153        0.81326        0.00000
   C       -0.86505       -0.12817        0.00000
   C        0.54353       -0.68508        0.00000
   H        0.53795        1.36069       -0.92039
   H        0.53795        1.36069        0.92039
   H       -1.44742       -0.21449        0.92034
   H       -1.44742       -0.21449       -0.92034
   H        0.90937       -1.14629       -0.92037
   H        0.90937       -1.14629        0.92037
}
energy('B3LYP')
frequencies('B3LYP')
--------------------------------------------------------------------------

    Molecular point group: cs
  Charge       = 0
  Multiplicity = 1
  Basis Set: AUG-CC-PVDZ
    Blend: AUG-CC-PVDZ
  Basis Set: (AUG-CC-PVDZ AUX)
    Blend: AUG-CC-PVDZ-JKFIT
  @DF-RKS Final Energy:  -117.90771407411766
    Total Energy =                       -117.9077140741176635
    Molecular point group: cs
  Basis Set: AUG-CC-PVDZ
    Blend: AUG-CC-PVDZ
  Basis Set: (AUG-CC-PVDZ AUX)
    Blend: AUG-CC-PVDZ-JKFIT
  @DF-RKS Final Energy:  -117.90771407385429
    Total Energy =                       -117.9077140738542937
  Basis Set: AUG-CC-PVDZ
    Blend: AUG-CC-PVDZ
  Basis Set: (AUG-CC-PVDZ AUX)
    Blend: AUG-CC-PVDZ-JKFIT
  Basis Set: AUG-CC-PVDZ
    Blend: AUG-CC-PVDZ
  Basis Set: (AUG-CC-PVDZ AUX)
    Blend: AUG-CC-PVDZ-JKFIT
  @DF-RKS Final Energy:  -117.90771407385469
    Total Energy =                       -117.9077140738546916
  Basis Set: AUG-CC-PVDZ
  @DF-RKS Final Energy:  -117.90771542884130
    Total Energy =                       -117.9077154288412999
  @DF-RKS Final Energy:  -117.90771745341246
    Total Energy =                       -117.9077174534124595
  @DF-RKS Final Energy:  -117.90771576809593
    Total Energy =                       -117.9077157680959260
  @DF-RKS Final Energy:  -117.90771436950730
    Total Energy =                       -117.9077143695073033
  @DF-RKS Final Energy:  -117.90771182819572
    Total Energy =                       -117.9077118281957155
  @DF-RKS Final Energy:  -117.90771336338939
    Total Energy =                       -117.9077133633893908
  @DF-RKS Final Energy:  -117.90771425139735
    Total Energy =                       -117.9077142513973513
  @DF-RKS Final Energy:  -117.90771795434092
    Total Energy =                       -117.9077179543409244
  @DF-RKS Final Energy:  -117.90771443975548
    Total Energy =                       -117.9077144397554804
  @DF-RKS Final Energy:  -117.90771146536434
    Total Energy =                       -117.9077114653643434
  @DF-RKS Final Energy:  -117.90771149821778
    Total Energy =                       -117.9077114982177790
  @DF-RKS Final Energy:  -117.90771440800042
    Total Energy =                       -117.9077144080004160
  @DF-RKS Final Energy:  -117.90771734005710
    Total Energy =                       -117.9077173400571041
  @DF-RKS Final Energy:  -117.90771415343212
    Total Energy =                       -117.9077141534321242
  @DF-RKS Final Energy:  -117.90771627135425
    Total Energy =                       -117.9077162713542464
  @DF-RKS Final Energy:  -117.90770791220304
    Total Energy =                       -117.9077079122030369
  @DF-RKS Final Energy:  -117.90769517854451
    Total Energy =                       -117.9076951785445146
  @DF-RKS Final Energy:  -117.90772599678181
    Total Energy =                       -117.9077259967818065
  @DF-RKS Final Energy:  -117.90771363288994
    Total Energy =                       -117.9077136328899371
  @DF-RKS Final Energy:  -117.90772359053304
    Total Energy =                       -117.9077235905330383
  @DF-RKS Final Energy:  -117.90772590565022
    Total Energy =                       -117.9077259056502243
  @DF-RKS Final Energy:  -117.90769527066701
    Total Energy =                       -117.9076952706670056
  @DF-RKS Final Energy:  -117.90769522819325
    Total Energy =                       -117.9076952281932478
  @DF-RKS Final Energy:  -117.90772594765883
    Total Energy =                       -117.9077259476588324
  @DF-RKS Final Energy:  -117.90771210146406
    Total Energy =                       -117.9077121014640568
  @DF-RKS Final Energy:  -117.90771190827321
    Total Energy =                       -117.9077119082732139
  @DF-RKS Final Energy:  -117.90771122657597
    Total Energy =                       -117.9077112265759553
  @DF-RKS Final Energy:  -117.90771315256764
    Total Energy =                       -117.9077131525676378
  @DF-RKS Final Energy:  -117.90771206613645
    Total Energy =                       -117.9077120661364546
  @DF-RKS Final Energy:  -117.90771181840553
    Total Energy =                       -117.9077118184055308
  @DF-RKS Final Energy:  -117.90771180241117
    Total Energy =                       -117.9077118024111854
  Basis Set: (AUG-CC-PVDZ AUX)
    Blend: AUG-CC-PVDZ-JKFIT
  Basis Set: AUG-CC-PVDZ
    Blend: AUG-CC-PVDZ
  Basis Set: (AUG-CC-PVDZ AUX)
    Blend: AUG-CC-PVDZ-JKFIT
  @DF-RKS Final Energy:  -117.90771355387260
    Total Energy =                       -117.9077135538725969
  Basis Set: AUG-CC-PVDZ
    Blend: AUG-CC-PVDZ
  Basis Set: (AUG-CC-PVDZ AUX)
    Blend: AUG-CC-PVDZ-JKFIT
    Molecular point group: c1
  Charge       = 0
  Multiplicity = 1
  Basis Set: AUG-CC-PVDZ
    Blend: AUG-CC-PVDZ
  Basis Set: (AUG-CC-PVDZ AUX)
    Blend: AUG-CC-PVDZ-JKFIT

    Orbital Energies [Eh]
    ---------------------

    Doubly Occupied:

       1A    -10.188143     2A    -10.187789     3A    -10.187785
       4A     -0.849553     5A     -0.597191     6A     -0.597186
       7A     -0.493259     8A     -0.464785     9A     -0.364842
      10A     -0.364828    11A     -0.297136    12A     -0.297130

  @DF-RKS Final Energy:  -117.90771172234061

   => Energetics <=

    Nuclear Repulsion Energy =             75.2814718714328848
    One-Electron Energy =                -305.8329448018357652
    Two-Electron Energy =                 127.6169168465150534
    DFT Exchange-Correlation Energy =     -14.9731556384527593
    Empirical Dispersion Energy =           0.0000000000000000
    VV10 Nonlocal Energy =                  0.0000000000000000
    Total Energy =                       -117.9077117223405935

  Dipole Moment: [D]
     X:    -0.0001      Y:    -0.0000      Z:    -0.0006     Total:     0.0006

    Molecular point group: c1

    Geometry (in Angstrom), charge = 0, multiplicity = 1:

       Center              X                  Y                   Z               Mass
    ------------   -----------------  -----------------  -----------------  -----------------
         C            0.321531939855     0.813261460475     0.000000000000    12.000000000000
         C           -0.865048060145    -0.128168539525     0.000000000000    12.000000000000
         C            0.543531939855    -0.685078539525     0.000000000000    12.000000000000
         H            0.537951939855     1.360691460475    -0.920390000000     1.007825032230
         H            0.537951939855     1.360691460475     0.920390000000     1.007825032230
         H           -1.447418060145    -0.214488539525     0.919737951237     1.007825032230
         H           -1.447418060145    -0.214488539525    -0.920942048763     1.007825032230
         H            0.907830274543    -1.145679013968    -0.919767951237     1.007825032230
         H            0.910913605168    -1.146898065083     0.920972048763     1.007825032230

  Basis Set: AUG-CC-PVDZ
    Blend: AUG-CC-PVDZ
  Basis Set: (AUG-CC-PVDZ AUX)
    Blend: AUG-CC-PVDZ-JKFIT

  -Total Gradient:
     Atom            X                  Y                   Z
    ------   -----------------  -----------------  -----------------
       1        0.000165519718     0.000433043156     0.000004266715
       2       -0.000431837069    -0.000062338355     0.000450663876
       3        0.000285179866    -0.000353756371    -0.001257573036
       4        0.000205781541     0.000525121750    -0.002186940493
       5        0.000211661745     0.000537601736     0.002184786920
       6       -0.000395348973    -0.000084429219     0.001894946621
       7       -0.000749265853    -0.000092709261    -0.002458249501
       8       -0.000005588756    -0.000091016943    -0.001495891421
       9        0.000712449788    -0.000813133035     0.002864088980

  Vibration                       7                   8                   9
  Freq [cm^-1]                 750.5646            750.7414            868.7694
  Irrep                          App                 App                 App
  Reduced mass [u]              1.0213              1.0213              1.0440
  Force const [mDyne/A]         0.3390              0.3391              0.4643

  Vibration                       10                  11                  12
  Freq [cm^-1]                 872.4737            873.0093           1040.4310
  Irrep                           Ap                  Ap                  Ap
  Reduced mass [u]              3.8643              3.8602              1.2505
  Force const [mDyne/A]         1.7331              1.7334              0.7976

  Vibration                       13                  14                  15
  Freq [cm^-1]                1043.7059           1066.1927           1145.0579
  Irrep                           Ap                  Ap                 App
  Reduced mass [u]              1.2508              1.4253              1.0078
  Force const [mDyne/A]         0.8028              0.9546              0.7786

  Vibration                       16                  17                  18
  Freq [cm^-1]                1202.6683           1202.7984           1207.4233
  Irrep                          App                 App                  Ap
  Reduced mass [u]              1.4510              1.4509              2.6930
  Force const [mDyne/A]         1.2365              1.2367              2.3131

  Vibration                       19                  20                  21
  Freq [cm^-1]                1461.0177           1461.2541           1509.4578
  Irrep                           Ap                  Ap                  Ap
  Reduced mass [u]              1.0886              1.0887              1.3233
  Force const [mDyne/A]         1.3691              1.3697              1.7764

  Vibration                       22                  23                  24
  Freq [cm^-1]                3101.1631           3101.2936           3109.4690
  Irrep                           Ap                  Ap                  Ap
  Reduced mass [u]              1.0501              1.0502              1.0629
  Force const [mDyne/A]         5.9504              5.9513              6.0553

  Vibration                       25                  26                  27
  Freq [cm^-1]                3184.5391           3184.5626           3205.5955
  Irrep                          App                 App                 App
  Reduced mass [u]              1.1201              1.1201              1.1162
  Force const [mDyne/A]         6.6926              6.6928              6.7578

  ==> Thermochemistry Components <==

  Entropy, S
    Electronic S            0.000 [cal/(mol K)]        0.000 [J/(mol K)]       0.00000000 [mEh/K] (multiplicity = 1)
    Translational S        37.135 [cal/(mol K)]      155.375 [J/(mol K)]       0.05917914 [mEh/K] (mol. weight = 42.0470 [u], P = 101325.00 [Pa])
    Rotational S           21.699 [cal/(mol K)]       90.789 [J/(mol K)]       0.03457982 [mEh/K] (symmetry no. = 1)
    Vibrational S           1.414 [cal/(mol K)]        5.918 [J/(mol K)]       0.00225387 [mEh/K]
  Total S                  60.249 [cal/(mol K)]      252.082 [J/(mol K)]       0.09601283 [mEh/K]
  Correction S              0.000 [cal/(mol K)]        0.000 [J/(mol K)]       0.00000000 [mEh/K]

  Constant volume heat capacity, Cv
    Electronic Cv           0.000 [cal/(mol K)]        0.000 [J/(mol K)]       0.00000000 [mEh/K]
    Translational Cv        2.981 [cal/(mol K)]       12.472 [J/(mol K)]       0.00475022 [mEh/K]
    Rotational Cv           2.981 [cal/(mol K)]       12.472 [J/(mol K)]       0.00475022 [mEh/K]
    Vibrational Cv          5.163 [cal/(mol K)]       21.602 [J/(mol K)]       0.00822795 [mEh/K]
  Total Cv                 11.125 [cal/(mol K)]       46.546 [J/(mol K)]       0.01772839 [mEh/K]
  Correction Cv             0.000 [cal/(mol K)]        0.000 [J/(mol K)]       0.00000000 [mEh/K]

  Constant pressure heat capacity, Cp
    Electronic Cp           0.000 [cal/(mol K)]        0.000 [J/(mol K)]       0.00000000 [mEh/K]
    Translational Cp        4.968 [cal/(mol K)]       20.786 [J/(mol K)]       0.00791703 [mEh/K]
    Rotational Cp           2.981 [cal/(mol K)]       12.472 [J/(mol K)]       0.00475022 [mEh/K]
    Vibrational Cp          5.163 [cal/(mol K)]       21.602 [J/(mol K)]       0.00822795 [mEh/K]
  Total Cp                 13.112 [cal/(mol K)]       54.860 [J/(mol K)]       0.02089520 [mEh/K]
  Correction Cp             0.000 [cal/(mol K)]        0.000 [J/(mol K)]       0.00000000 [mEh/K]

  ==> Thermochemistry Energy Analysis <==

  Raw electronic energy, E0
  Total E0, Electronic energy at well bottom at 0 [K]                 -117.90771407 [Eh]

  Zero-point energy, ZPE_vib = Sum_i nu_i / 2
    Electronic ZPE          0.000 [kcal/mol]        0.000 [kJ/mol]       0.00000000 [Eh]
    Translational ZPE       0.000 [kcal/mol]        0.000 [kJ/mol]       0.00000000 [Eh]
    Rotational ZPE          0.000 [kcal/mol]        0.000 [kJ/mol]       0.00000000 [Eh]
    Vibrational ZPE        50.524 [kcal/mol]      211.393 [kJ/mol]       0.08051543 [Eh]       17671.094 [cm^-1]
  Correction ZPE           50.524 [kcal/mol]      211.393 [kJ/mol]       0.08051543 [Eh]       17671.094 [cm^-1]
  Total ZPE, Electronic energy at 0 [K]                               -117.82719864 [Eh]

  Thermal Energy, E (includes ZPE)
    Electronic E            0.000 [kcal/mol]        0.000 [kJ/mol]       0.00000000 [Eh]
    Translational E         0.889 [kcal/mol]        3.718 [kJ/mol]       0.00141628 [Eh]
    Rotational E            0.889 [kcal/mol]        3.718 [kJ/mol]       0.00141628 [Eh]
    Vibrational E          50.867 [kcal/mol]      212.826 [kJ/mol]       0.08106124 [Eh]
  Correction E             52.644 [kcal/mol]      220.263 [kJ/mol]       0.08389379 [Eh]
  Total E, Electronic energy at  298.15 [K]                           -117.82382028 [Eh]

  Enthalpy, H_trans = E_trans + k_B * T
    Electronic H            0.000 [kcal/mol]        0.000 [kJ/mol]       0.00000000 [Eh]
    Translational H         1.481 [kcal/mol]        6.197 [kJ/mol]       0.00236046 [Eh]
    Rotational H            0.889 [kcal/mol]        3.718 [kJ/mol]       0.00141628 [Eh]
    Vibrational H          50.867 [kcal/mol]      212.826 [kJ/mol]       0.08106124 [Eh]
  Correction H             53.237 [kcal/mol]      222.742 [kJ/mol]       0.08483797 [Eh]
  Total H, Enthalpy at  298.15 [K]                                    -117.82287610 [Eh]

  Gibbs free energy, G = H - T * S
    Electronic G            0.000 [kcal/mol]        0.000 [kJ/mol]       0.00000000 [Eh]
    Translational G        -9.591 [kcal/mol]      -40.128 [kJ/mol]      -0.01528380 [Eh]
    Rotational G           -5.581 [kcal/mol]      -23.350 [kJ/mol]      -0.00889370 [Eh]
    Vibrational G          50.445 [kcal/mol]      211.062 [kJ/mol]       0.08038924 [Eh]
  Correction G             35.273 [kcal/mol]      147.584 [kJ/mol]       0.05621175 [Eh]
  Total G, Free enthalpy at  298.15 [K]                               -117.85150233 [Eh]

*** Psi4 exiting successfully. Buy a developer a beer!
