                               Psi4 1.3.2 release

  ==> Input File <==

--------------------------------------------------------------------------
set basis  cc-pVTZ
molecule {
0 1
   O        0.00000        0.00000       -0.06797
   H        0.74903        0.00000        0.53936
   H       -0.74903        0.00000        0.53936
}
energy('MP2')
frequencies('MP2')

--------------------------------------------------------------------------

    Molecular point group: c2v
  Charge       = 0
  Multiplicity = 1
  Basis Set: CC-PVTZ
    Blend: CC-PVTZ
  Basis Set: (CC-PVTZ AUX)
    Blend: CC-PVTZ-JKFIT
  @DF-RHF Final Energy:   -76.05632001899046
    Total Energy =                        -76.0563200189904478
  Basis Set: (CC-PVTZ AUX)
    Blend: CC-PVTZ-RI
	 Reference Energy          =     -76.0563200189904620 [Eh]
	 Singles Energy            =      -0.0000000000000000 [Eh]
	 Same-Spin Energy          =      -0.0667474664805019 [Eh]
	 Opposite-Spin Energy      =      -0.2089932780261795 [Eh]
	 Correlation Energy        =      -0.2757407445066814 [Eh]
	 Total Energy              =     -76.3320607634971395 [Eh]
	 SCS Total Energy          =     -76.3293611081153784 [Eh]
    Molecular point group: c2v
  Basis Set: CC-PVTZ
    Blend: CC-PVTZ
  Basis Set: (CC-PVTZ AUX)
    Blend: CC-PVTZ-JKFIT
  @DF-RHF Final Energy:   -76.05632001899050
    Total Energy =                        -76.0563200189905046
  Basis Set: (CC-PVTZ AUX)
  @DF-RHF Final Energy:   -76.05632001899048
    Total Energy =                        -76.0563200189904762
  @DF-RHF Final Energy:   -76.05617328949245
    Total Energy =                        -76.0561732894924489
  @DF-RHF Final Energy:   -76.05645978326393
    Total Energy =                        -76.0564597832639322
  @DF-RHF Final Energy:   -76.05642026157751
    Total Energy =                        -76.0564202615775287
  @DF-RHF Final Energy:   -76.05620970946691
    Total Energy =                        -76.0562097094669127
    Molecular point group: cs
  Charge       = 0
  Multiplicity = 1
  Basis Set: CC-PVTZ
    Blend: CC-PVTZ
  Basis Set: (CC-PVTZ AUX)
    Blend: CC-PVTZ-JKFIT

    Orbital Energies [Eh]
    ---------------------

    Doubly Occupied:

       1Ap   -20.557266     2Ap    -1.344004     3Ap    -0.700975
       4Ap    -0.581518     1App   -0.504768

  @DF-RHF Final Energy:   -76.05631287642497

   => Energetics <=

    Nuclear Repulsion Energy =              9.1334682877742281
    One-Electron Energy =                -123.0025026581462981
    Two-Electron Energy =                  37.8127214939471088
    Total Energy =                        -76.0563128764249683

  Dipole Moment: [D]
     X:     0.0030      Y:     0.0000      Z:     2.0716     Total:     2.0716

  Basis Set: (CC-PVTZ AUX)
    Blend: CC-PVTZ-RI
    Molecular point group: cs

    Geometry (in Angstrom), charge = 0, multiplicity = 1:

       Center              X                  Y                   Z               Mass
    ------------   -----------------  -----------------  -----------------  -----------------
         O           -0.000175859669     0.000000000000    -0.067969259994    15.994914619570
         H            0.750425510279     0.000000000000     0.540492250436     1.007825032230
         H           -0.747634489721     0.000000000000     0.538229229576     1.007825032230

  Basis Set: CC-PVTZ
    Blend: CC-PVTZ
  Basis Set: (CC-PVTZ AUX)
    Blend: CC-PVTZ-JKFIT
  Basis Set: (CC-PVTZ AUX)
    Blend: CC-PVTZ-JKFIT
	 Reference Energy          =     -76.0563128764249683 [Eh]
	 Singles Energy            =      -0.0000000000000000 [Eh]
	 Same-Spin Energy          =      -0.0667474111325587 [Eh]
	 Opposite-Spin Energy      =      -0.2089932874515587 [Eh]
	 Correlation Energy        =      -0.2757406985841173 [Eh]
	 Total Energy              =     -76.3320535750090841 [Eh]

	 ================> DF-SCS-MP2 Energies <==================
	-----------------------------------------------------------
	 SCS Same-Spin Scale       =       0.3333333333333333 [-]
	 SCS Opposite-Spin Scale   =       1.2000000000000000 [-]
	 SCS Same-Spin Energy      =      -0.0222491370441862 [Eh]
	 SCS Opposite-Spin Energy  =      -0.2507919449418703 [Eh]
	 SCS Correlation Energy    =      -0.2730410819860566 [Eh]
	 SCS Total Energy          =     -76.3293539584110192 [Eh]
	-----------------------------------------------------------

  -Total Gradient:
     Atom            X                  Y                   Z
    ------   -----------------  -----------------  -----------------
       1       -0.003063063689     0.000000000000    -0.010769908404
       2        0.004624475333     0.000000000000     0.006620129505
       3       -0.001561411644     0.000000000000     0.004149778899

  Vibration                       7                   8                   9
  Freq [cm^-1]                1679.1819           3789.5316           3898.3546
  Irrep                           A1                  A1                  B1
  Reduced mass [u]              1.0819              1.0459              1.0793
  Force const [mDyne/A]         1.7973              8.8496              9.6638

  ==> Thermochemistry Components <==

  Entropy, S
    Electronic S            0.000 [cal/(mol K)]        0.000 [J/(mol K)]       0.00000000 [mEh/K] (multiplicity = 1)
    Translational S        34.608 [cal/(mol K)]      144.801 [J/(mol K)]       0.05515177 [mEh/K] (mol. weight = 18.0106 [u], P = 101325.00 [Pa])
    Rotational S           10.508 [cal/(mol K)]       43.968 [J/(mol K)]       0.01674635 [mEh/K] (symmetry no. = 2)
    Vibrational S           0.005 [cal/(mol K)]        0.023 [J/(mol K)]       0.00000873 [mEh/K]
  Total S                  45.122 [cal/(mol K)]      188.791 [J/(mol K)]       0.07190685 [mEh/K]
  Correction S              0.000 [cal/(mol K)]        0.000 [J/(mol K)]       0.00000000 [mEh/K]

  Constant volume heat capacity, Cv
    Electronic Cv           0.000 [cal/(mol K)]        0.000 [J/(mol K)]       0.00000000 [mEh/K]
    Translational Cv        2.981 [cal/(mol K)]       12.472 [J/(mol K)]       0.00475022 [mEh/K]
    Rotational Cv           2.981 [cal/(mol K)]       12.472 [J/(mol K)]       0.00475022 [mEh/K]
    Vibrational Cv          0.040 [cal/(mol K)]        0.165 [J/(mol K)]       0.00006297 [mEh/K]
  Total Cv                  6.001 [cal/(mol K)]       25.109 [J/(mol K)]       0.00956341 [mEh/K]
  Correction Cv             0.000 [cal/(mol K)]        0.000 [J/(mol K)]       0.00000000 [mEh/K]

  Constant pressure heat capacity, Cp
    Electronic Cp           0.000 [cal/(mol K)]        0.000 [J/(mol K)]       0.00000000 [mEh/K]
    Translational Cp        4.968 [cal/(mol K)]       20.786 [J/(mol K)]       0.00791703 [mEh/K]
    Rotational Cp           2.981 [cal/(mol K)]       12.472 [J/(mol K)]       0.00475022 [mEh/K]
    Vibrational Cp          0.040 [cal/(mol K)]        0.165 [J/(mol K)]       0.00006297 [mEh/K]
  Total Cp                  7.988 [cal/(mol K)]       33.423 [J/(mol K)]       0.01273022 [mEh/K]
  Correction Cp             0.000 [cal/(mol K)]        0.000 [J/(mol K)]       0.00000000 [mEh/K]

  ==> Thermochemistry Energy Analysis <==

  Raw electronic energy, E0
  Total E0, Electronic energy at well bottom at 0 [K]                  -76.33206076 [Eh]

  Zero-point energy, ZPE_vib = Sum_i nu_i / 2
    Electronic ZPE          0.000 [kcal/mol]        0.000 [kJ/mol]       0.00000000 [Eh]
    Translational ZPE       0.000 [kcal/mol]        0.000 [kJ/mol]       0.00000000 [Eh]
    Rotational ZPE          0.000 [kcal/mol]        0.000 [kJ/mol]       0.00000000 [Eh]
    Vibrational ZPE        13.391 [kcal/mol]       56.028 [kJ/mol]       0.02133975 [Eh]        4683.534 [cm^-1]
  Correction ZPE           13.391 [kcal/mol]       56.028 [kJ/mol]       0.02133975 [Eh]        4683.534 [cm^-1]
  Total ZPE, Electronic energy at 0 [K]                                -76.31072101 [Eh]

  Thermal Energy, E (includes ZPE)
    Electronic E            0.000 [kcal/mol]        0.000 [kJ/mol]       0.00000000 [Eh]
    Translational E         0.889 [kcal/mol]        3.718 [kJ/mol]       0.00141628 [Eh]
    Rotational E            0.889 [kcal/mol]        3.718 [kJ/mol]       0.00141628 [Eh]
    Vibrational E          13.392 [kcal/mol]       56.034 [kJ/mol]       0.02134207 [Eh]
  Correction E             15.170 [kcal/mol]       63.470 [kJ/mol]       0.02417462 [Eh]
  Total E, Electronic energy at  298.15 [K]                            -76.30788614 [Eh]

  Enthalpy, H_trans = E_trans + k_B * T
    Electronic H            0.000 [kcal/mol]        0.000 [kJ/mol]       0.00000000 [Eh]
    Translational H         1.481 [kcal/mol]        6.197 [kJ/mol]       0.00236046 [Eh]
    Rotational H            0.889 [kcal/mol]        3.718 [kJ/mol]       0.00141628 [Eh]
    Vibrational H          13.392 [kcal/mol]       56.034 [kJ/mol]       0.02134207 [Eh]
  Correction H             15.762 [kcal/mol]       65.949 [kJ/mol]       0.02511881 [Eh]
  Total H, Enthalpy at  298.15 [K]                                     -76.30694196 [Eh]

  Gibbs free energy, G = H - T * S
    Electronic G            0.000 [kcal/mol]        0.000 [kJ/mol]       0.00000000 [Eh]
    Translational G        -8.837 [kcal/mol]      -36.975 [kJ/mol]      -0.01408304 [Eh]
    Rotational G           -2.244 [kcal/mol]       -9.390 [kJ/mol]      -0.00357665 [Eh]
    Vibrational G          13.391 [kcal/mol]       56.027 [kJ/mol]       0.02133947 [Eh]
  Correction G              2.309 [kcal/mol]        9.661 [kJ/mol]       0.00367978 [Eh]
  Total G, Free enthalpy at  298.15 [K]                                -76.32838099 [Eh]

*** Psi4 exiting successfully. Buy a developer a beer!
