                               Psi4 1.3.2 release

  ==> Input File <==

--------------------------------------------------------------------------
set basis  aug-cc-pVDZ
molecule {
0 1
   C       -0.61446        0.00000        0.00000
   C        0.61446        0.00000        0.00000
   H       -1.68923        0.00000        0.00000
   H        1.68923        0.00000        0.00000
}
energy('scf')
frequencies('scf')
--------------------------------------------------------------------------

    Molecular point group: d2h
  Charge       = 0
  Multiplicity = 1
  Basis Set: AUG-CC-PVDZ
    Blend: AUG-CC-PVDZ
  Basis Set: (AUG-CC-PVDZ AUX)
    Blend: AUG-CC-PVDZ-JKFIT
  @DF-RHF Final Energy:   -76.82550624700941
    Total Energy =                        -76.8255062470094146
    Molecular point group: d2h
  Basis Set: AUG-CC-PVDZ
    Blend: AUG-CC-PVDZ
  Basis Set: (AUG-CC-PVDZ AUX)
    Blend: AUG-CC-PVDZ-JKFIT
  @DF-RHF Final Energy:   -76.82550624706707
    Total Energy =                        -76.8255062470670680
  Basis Set: AUG-CC-PVDZ
    Blend: AUG-CC-PVDZ
  Basis Set: (AUG-CC-PVDZ AUX)
    Blend: AUG-CC-PVDZ-JKFIT

  -Total Gradient:
     Atom            X                  Y                   Z
    ------   -----------------  -----------------  -----------------
       1       -0.070714591498    -0.000000000000     0.000000000000
       2        0.070714591498     0.000000000000     0.000000000000
       3       -0.009452530255    -0.000000000000     0.000000000000
       4        0.009452530255     0.000000000000     0.000000000000

  Charge       = 0
  Multiplicity = 1
  Basis Set: AUG-CC-PVDZ
    Blend: AUG-CC-PVDZ
  Basis Set: (AUG-CC-PVDZ AUX)
    Blend: AUG-CC-PVDZ-JKFIT

    Orbital Energies [Eh]
    ---------------------

    Doubly Occupied:

       1Ag   -11.262350     1B3u  -11.259178     2Ag    -1.026041
       2B3u   -0.767655     3Ag    -0.676518     1B1u   -0.405302
       1B2u   -0.405302

  @DF-RHF Final Energy:   -76.82550624706707

   => Energetics <=

    Nuclear Repulsion Energy =             24.3232181713792350
    One-Electron Energy =                -150.6927575356240538
    Two-Electron Energy =                  49.5440331171777473
    Total Energy =                        -76.8255062470670680

  Dipole Moment: [D]
     X:     0.0000      Y:     0.0000      Z:     0.0000     Total:     0.0000

    Molecular point group: d2h
  Basis Set: AUG-CC-PVDZ
    Blend: AUG-CC-PVDZ
  Basis Set: (AUG-CC-PVDZ AUX)
    Blend: AUG-CC-PVDZ-JKFIT
  Basis Set: (AUG-CC-PVDZ AUX)
    Blend: AUG-CC-PVDZ-JKFIT
    Molecular point group: d2h

    Geometry (in Angstrom), charge = 0, multiplicity = 1:

       Center              X                  Y                   Z               Mass
    ------------   -----------------  -----------------  -----------------  -----------------
         C           -0.614460000000    -0.000000000000     0.000000000000    12.000000000000
         C            0.614460000000     0.000000000000     0.000000000000    12.000000000000
         H           -1.689230000000    -0.000000000000     0.000000000000     1.007825032230
         H            1.689230000000     0.000000000000     0.000000000000     1.007825032230

  Basis Set: AUG-CC-PVDZ
    Blend: AUG-CC-PVDZ
  Basis Set: (AUG-CC-PVDZ AUX)
    Blend: AUG-CC-PVDZ-JKFIT

  Vibration                       4                   5                   6
  Freq [cm^-1]                 332.5581            332.5581            767.9968
  Irrep
  Reduced mass [u]              2.0501              2.0501              1.7013
  Force const [mDyne/A]         0.1336              0.1336              0.5912

  IR activ [km/mol]             0.0000              0.0000              0.0000

  Vibration                       7                   8                   9
  Freq [cm^-1]                 767.9968            888.4757            888.4757
  Irrep
  Reduced mass [u]              1.7013              1.0848              1.0848
  Force const [mDyne/A]         0.5912              0.5045              0.5045

  IR activ [km/mol]             0.0000             119.4347            119.4347

  Vibration                       10                  11                  12
  Freq [cm^-1]                2005.0159           3449.9206           3540.9819
  Irrep                           Ag                 B3u                  Ag
  Reduced mass [u]              3.9984              1.0848              1.2114
  Force const [mDyne/A]         9.4705              7.6072              8.9495

  IR activ [km/mol]             0.0000             115.3152             0.0000

  ==> Thermochemistry Components <==

  Entropy, S
    Electronic S            0.000 [cal/(mol K)]        0.000 [J/(mol K)]       0.00000000 [mEh/K] (multiplicity = 1)
    Translational S        35.704 [cal/(mol K)]      149.387 [J/(mol K)]       0.05689862 [mEh/K] (mol. weight = 26.0157 [u], P = 101325.00 [Pa])
    Rotational S           10.952 [cal/(mol K)]       45.824 [J/(mol K)]       0.01745345 [mEh/K] (symmetry no. = 2)
    Vibrational S           3.259 [cal/(mol K)]       13.635 [J/(mol K)]       0.00519340 [mEh/K]
  Total S                  49.916 [cal/(mol K)]      208.847 [J/(mol K)]       0.07954546 [mEh/K]
  Correction S              0.000 [cal/(mol K)]        0.000 [J/(mol K)]       0.00000000 [mEh/K]

  Constant volume heat capacity, Cv
    Electronic Cv           0.000 [cal/(mol K)]        0.000 [J/(mol K)]       0.00000000 [mEh/K]
    Translational Cv        2.981 [cal/(mol K)]       12.472 [J/(mol K)]       0.00475022 [mEh/K]
    Rotational Cv           1.987 [cal/(mol K)]        8.314 [J/(mol K)]       0.00316681 [mEh/K]
    Vibrational Cv          5.675 [cal/(mol K)]       23.742 [J/(mol K)]       0.00904292 [mEh/K]
  Total Cv                 10.643 [cal/(mol K)]       44.528 [J/(mol K)]       0.01695995 [mEh/K]
  Correction Cv             0.000 [cal/(mol K)]        0.000 [J/(mol K)]       0.00000000 [mEh/K]

  Constant pressure heat capacity, Cp
    Electronic Cp           0.000 [cal/(mol K)]        0.000 [J/(mol K)]       0.00000000 [mEh/K]
    Translational Cp        4.968 [cal/(mol K)]       20.786 [J/(mol K)]       0.00791703 [mEh/K]
    Rotational Cp           1.987 [cal/(mol K)]        8.314 [J/(mol K)]       0.00316681 [mEh/K]
    Vibrational Cp          5.675 [cal/(mol K)]       23.742 [J/(mol K)]       0.00904292 [mEh/K]
  Total Cp                 12.630 [cal/(mol K)]       52.843 [J/(mol K)]       0.02012676 [mEh/K]
  Correction Cp             0.000 [cal/(mol K)]        0.000 [J/(mol K)]       0.00000000 [mEh/K]

  ==> Thermochemistry Energy Analysis <==

  Raw electronic energy, E0
  Total E0, Electronic energy at well bottom at 0 [K]                  -76.82550625 [Eh]

  Zero-point energy, ZPE_vib = Sum_i nu_i / 2
    Electronic ZPE          0.000 [kcal/mol]        0.000 [kJ/mol]       0.00000000 [Eh]
    Translational ZPE       0.000 [kcal/mol]        0.000 [kJ/mol]       0.00000000 [Eh]
    Rotational ZPE          0.000 [kcal/mol]        0.000 [kJ/mol]       0.00000000 [Eh]
    Vibrational ZPE        18.547 [kcal/mol]       77.602 [kJ/mol]       0.02955690 [Eh]        6486.990 [cm^-1]
  Correction ZPE           18.547 [kcal/mol]       77.602 [kJ/mol]       0.02955690 [Eh]        6486.990 [cm^-1]
  Total ZPE, Electronic energy at 0 [K]                                -76.79594935 [Eh]

  Thermal Energy, E (includes ZPE)
    Electronic E            0.000 [kcal/mol]        0.000 [kJ/mol]       0.00000000 [Eh]
    Translational E         0.889 [kcal/mol]        3.718 [kJ/mol]       0.00141628 [Eh]
    Rotational E            0.592 [kcal/mol]        2.479 [kJ/mol]       0.00094418 [Eh]
    Vibrational E          19.207 [kcal/mol]       80.363 [kJ/mol]       0.03060858 [Eh]
  Correction E             20.688 [kcal/mol]       86.560 [kJ/mol]       0.03296904 [Eh]
  Total E, Electronic energy at  298.15 [K]                            -76.79253720 [Eh]

  Enthalpy, H_trans = E_trans + k_B * T
    Electronic H            0.000 [kcal/mol]        0.000 [kJ/mol]       0.00000000 [Eh]
    Translational H         1.481 [kcal/mol]        6.197 [kJ/mol]       0.00236046 [Eh]
    Rotational H            0.592 [kcal/mol]        2.479 [kJ/mol]       0.00094418 [Eh]
    Vibrational H          19.207 [kcal/mol]       80.363 [kJ/mol]       0.03060858 [Eh]
  Correction H             21.281 [kcal/mol]       89.039 [kJ/mol]       0.03391323 [Eh]
  Total H, Enthalpy at  298.15 [K]                                     -76.79159302 [Eh]

  Gibbs free energy, G = H - T * S
    Electronic G            0.000 [kcal/mol]        0.000 [kJ/mol]       0.00000000 [Eh]
    Translational G        -9.164 [kcal/mol]      -38.342 [kJ/mol]      -0.01460386 [Eh]
    Rotational G           -2.673 [kcal/mol]      -11.183 [kJ/mol]      -0.00425956 [Eh]
    Vibrational G          18.236 [kcal/mol]       76.297 [kJ/mol]       0.02906017 [Eh]
  Correction G              6.399 [kcal/mol]       26.772 [kJ/mol]       0.01019675 [Eh]
  Total G, Free enthalpy at  298.15 [K]                                -76.81530950 [Eh]

*** Psi4 exiting successfully. Buy a developer a beer!
