                               Psi4 1.3.2 release

  ==> Input File <==

--------------------------------------------------------------------------
set basis  cc-pVTZ
molecule {
0 1
   C       -0.61446        0.00000        0.00000
   C        0.61446        0.00000        0.00000
   H       -1.68923        0.00000        0.00000
   H        1.68923        0.00000        0.00000
}
energy('CCSD')
frequencies('CCSD')
--------------------------------------------------------------------------

    Molecular point group: d2h
  Charge       = 0
  Multiplicity = 1
  Basis Set: CC-PVTZ
    Blend: CC-PVTZ
  @RHF Final Energy:   -76.84501296670361
    Total Energy =                        -76.8450129667036066
      * MP2 total energy                      =  -77.187439739385809
      * CCSD total energy                     =  -77.199513748179456
    Molecular point group: d2h
  Basis Set: CC-PVTZ
    Blend: CC-PVTZ
  @RHF Final Energy:   -76.84501296670351
    Total Energy =                        -76.8450129667035071
      * MP2 total energy                      =  -77.187439739257755
      * CCSD total energy                     =  -77.199513749354296
  Basis Set: CC-PVTZ
    Blend: CC-PVTZ
  @RHF Final Energy:   -76.84501296670351
    Total Energy =                        -76.8450129667035071
      * MP2 total energy                      =  -77.187439739257755
      * CCSD total energy                     =  -77.199513748063836
  Basis Set: CC-PVTZ
    Blend: CC-PVTZ
  @RHF Final Energy:   -76.84483234075512
    Total Energy =                        -76.8448323407551186
      * MP2 total energy                      =  -77.187385520327339
      * CCSD total energy                     =  -77.199422932475102
  @RHF Final Energy:   -76.84518862736573
    Total Energy =                        -76.8451886273657294
      * MP2 total energy                      =  -77.187489345951946
      * CCSD total energy                     =  -77.199599827773028
  @RHF Final Energy:   -76.84489585168869
    Total Energy =                        -76.8448958516886904
      * MP2 total energy                      =  -77.187342469364850
      * CCSD total energy                     =  -77.199417998392590
  @RHF Final Energy:   -76.84512019071751
    Total Energy =                        -76.8451201907174948
      * MP2 total energy                      =  -77.187527489083053
      * CCSD total energy                     =  -77.199600033642355
  @RHF Final Energy:   -76.84501277884148
    Total Energy =                        -76.8450127788414790
      * MP2 total energy                      =  -77.187439645450524
      * CCSD total energy                     =  -77.199513635412771
  @RHF Final Energy:   -76.84501273219365
    Total Energy =                        -76.8450127321936520
      * MP2 total energy                      =  -77.187439576372142
      * CCSD total energy                     =  -77.199513581609807
  @RHF Final Energy:   -76.84501277884141
    Total Energy =                        -76.8450127788414079
      * MP2 total energy                      =  -77.187439645450297
      * CCSD total energy                     =  -77.199513635412529
  Basis Set: CC-PVTZ
    Blend: CC-PVTZ
  @RHF Final Energy:   -76.84501273219374
    Total Energy =                        -76.8450127321937373
      * MP2 total energy                      =  -77.187439576372157
      * CCSD total energy                     =  -77.199513581609821
  Basis Set: CC-PVTZ
    Blend: CC-PVTZ
  @RHF Final Energy:   -76.84501253807105
    Total Energy =                        -76.8450125380710460
      * MP2 total energy                      =  -77.187439399687634
      * CCSD total energy                     =  -77.199513401876033
  Basis Set: CC-PVTZ
    Blend: CC-PVTZ
  @RHF Final Energy:   -76.84501253807093
    Total Energy =                        -76.8450125380709324
      * MP2 total energy                      =  -77.187439399687591
      * CCSD total energy                     =  -77.199513401875976
    Molecular point group: c2v
  Charge       = 0
  Multiplicity = 1
  Basis Set: CC-PVTZ
    Blend: CC-PVTZ

    Orbital Energies [Eh]
    ---------------------

    Doubly Occupied:

       1A1   -11.250972     2A1   -11.247697     3A1    -1.020447
       4A1    -0.765348     5A1    -0.674968     1B2    -0.403735
       1B1    -0.403735

  @RHF Final Energy:   -76.84500761732869

   => Energetics <=

    Nuclear Repulsion Energy =             24.3232393838559098
    One-Electron Energy =                -150.8026896968155199
    Two-Electron Energy =                  49.6344426956309164
    Total Energy =                        -76.8450076173286902

  Dipole Moment: [D]
     X:     0.0043      Y:     0.0000      Z:     0.0000     Total:     0.0043

      * MP2 total energy                      =  -77.187434655320786
      * CCSD total energy                     =  -77.199508707326927
    Molecular point group: c2v

    Geometry (in Bohr), charge = 0, multiplicity = 1:

       Center              X                  Y                   Z
    ------------   -----------------  -----------------  -----------------
         C           -1.161445204175     0.000000000000     0.000000000000
         C            1.160877025923     0.000000000000     0.000000000000
         H           -3.188799462353     0.000000000000     0.000000000000
         H            3.195564663461     0.000000000000     0.000000000000

  -Total gradient:
     Atom            X                  Y                   Z
    ------   -----------------  -----------------  -----------------
       1       -0.044714853177     0.000000000000     0.000000000000
       2        0.041965352016     0.000000000000     0.000000000000
       3       -0.011542022162     0.000000000000     0.000000000000
       4        0.014291523324     0.000000000000     0.000000000000

  Vibration                       4                   5                   6
  Freq [cm^-1]                 301.9201            301.9201            706.3067
  Irrep                          B2g                 B1g                 B2g
  Reduced mass [u]              2.4331              2.4331              1.5047
  Force const [mDyne/A]         0.1307              0.1307              0.4423

  Vibration                       7                   8                   9
  Freq [cm^-1]                 706.3067            855.4743            855.4743
  Irrep                          B1g                 B2u                 B1u
  Reduced mass [u]              1.5047              1.0848              1.0848
  Force const [mDyne/A]         0.4423              0.4678              0.4678

  Vibration                       10                  11                  12
  Freq [cm^-1]                1897.9981           3264.3619           3377.4028
  Irrep                           Ag                 B3u                  Ag
  Reduced mass [u]              4.0524              1.0848              1.2066
  Force const [mDyne/A]         8.6011              6.8109              8.1090

  ==> Thermochemistry Components <==

  Entropy, S
    Electronic S            0.000 [cal/(mol K)]        0.000 [J/(mol K)]       0.00000000 [mEh/K] (multiplicity = 1)
    Translational S        35.704 [cal/(mol K)]      149.387 [J/(mol K)]       0.05689862 [mEh/K] (mol. weight = 26.0157 [u], P = 101325.00 [Pa])
    Rotational S           10.952 [cal/(mol K)]       45.824 [J/(mol K)]       0.01745345 [mEh/K] (symmetry no. = 2)
    Vibrational S           3.745 [cal/(mol K)]       15.670 [J/(mol K)]       0.00596839 [mEh/K]
  Total S                  50.402 [cal/(mol K)]      210.881 [J/(mol K)]       0.08032046 [mEh/K]
  Correction S              0.000 [cal/(mol K)]        0.000 [J/(mol K)]       0.00000000 [mEh/K]

  Constant volume heat capacity, Cv
    Electronic Cv           0.000 [cal/(mol K)]        0.000 [J/(mol K)]       0.00000000 [mEh/K]
    Translational Cv        2.981 [cal/(mol K)]       12.472 [J/(mol K)]       0.00475022 [mEh/K]
    Rotational Cv           1.987 [cal/(mol K)]        8.314 [J/(mol K)]       0.00316681 [mEh/K]
    Vibrational Cv          6.119 [cal/(mol K)]       25.604 [J/(mol K)]       0.00975198 [mEh/K]
  Total Cv                 11.087 [cal/(mol K)]       46.390 [J/(mol K)]       0.01766900 [mEh/K]
  Correction Cv             0.000 [cal/(mol K)]        0.000 [J/(mol K)]       0.00000000 [mEh/K]

  Constant pressure heat capacity, Cp
    Electronic Cp           0.000 [cal/(mol K)]        0.000 [J/(mol K)]       0.00000000 [mEh/K]
    Translational Cp        4.968 [cal/(mol K)]       20.786 [J/(mol K)]       0.00791703 [mEh/K]
    Rotational Cp           1.987 [cal/(mol K)]        8.314 [J/(mol K)]       0.00316681 [mEh/K]
    Vibrational Cp          6.119 [cal/(mol K)]       25.604 [J/(mol K)]       0.00975198 [mEh/K]
  Total Cp                 13.075 [cal/(mol K)]       54.704 [J/(mol K)]       0.02083581 [mEh/K]
  Correction Cp             0.000 [cal/(mol K)]        0.000 [J/(mol K)]       0.00000000 [mEh/K]

  ==> Thermochemistry Energy Analysis <==

  Raw electronic energy, E0
  Total E0, Electronic energy at well bottom at 0 [K]                  -77.19951375 [Eh]

  Zero-point energy, ZPE_vib = Sum_i nu_i / 2
    Electronic ZPE          0.000 [kcal/mol]        0.000 [kJ/mol]       0.00000000 [Eh]
    Translational ZPE       0.000 [kcal/mol]        0.000 [kJ/mol]       0.00000000 [Eh]
    Rotational ZPE          0.000 [kcal/mol]        0.000 [kJ/mol]       0.00000000 [Eh]
    Vibrational ZPE        17.537 [kcal/mol]       73.374 [kJ/mol]       0.02794666 [Eh]        6133.582 [cm^-1]
  Correction ZPE           17.537 [kcal/mol]       73.374 [kJ/mol]       0.02794666 [Eh]        6133.582 [cm^-1]
  Total ZPE, Electronic energy at 0 [K]                                -77.17156709 [Eh]

  Thermal Energy, E (includes ZPE)
    Electronic E            0.000 [kcal/mol]        0.000 [kJ/mol]       0.00000000 [Eh]
    Translational E         0.889 [kcal/mol]        3.718 [kJ/mol]       0.00141628 [Eh]
    Rotational E            0.592 [kcal/mol]        2.479 [kJ/mol]       0.00094418 [Eh]
    Vibrational E          18.280 [kcal/mol]       76.484 [kJ/mol]       0.02913103 [Eh]
  Correction E             19.761 [kcal/mol]       82.681 [kJ/mol]       0.03149149 [Eh]
  Total E, Electronic energy at  298.15 [K]                            -77.16802225 [Eh]

  Enthalpy, H_trans = E_trans + k_B * T
    Electronic H            0.000 [kcal/mol]        0.000 [kJ/mol]       0.00000000 [Eh]
    Translational H         1.481 [kcal/mol]        6.197 [kJ/mol]       0.00236046 [Eh]
    Rotational H            0.592 [kcal/mol]        2.479 [kJ/mol]       0.00094418 [Eh]
    Vibrational H          18.280 [kcal/mol]       76.484 [kJ/mol]       0.02913103 [Eh]
  Correction H             20.354 [kcal/mol]       85.160 [kJ/mol]       0.03243568 [Eh]
  Total H, Enthalpy at  298.15 [K]                                     -77.16707807 [Eh]

  Gibbs free energy, G = H - T * S
    Electronic G            0.000 [kcal/mol]        0.000 [kJ/mol]       0.00000000 [Eh]
    Translational G        -9.164 [kcal/mol]      -38.342 [kJ/mol]      -0.01460386 [Eh]
    Rotational G           -2.673 [kcal/mol]      -11.183 [kJ/mol]      -0.00425956 [Eh]
    Vibrational G          17.163 [kcal/mol]       71.812 [kJ/mol]       0.02735156 [Eh]
  Correction G              5.326 [kcal/mol]       22.286 [kJ/mol]       0.00848813 [Eh]
  Total G, Free enthalpy at  298.15 [K]                                -77.19102561 [Eh]

*** Psi4 exiting successfully. Buy a developer a beer!
