                               Psi4 1.3.2 release

  ==> Input File <==

--------------------------------------------------------------------------
set basis  6-311++g**
molecule {
0 1
   C       -0.61446        0.00000        0.00000
   C        0.61446        0.00000        0.00000
   H       -1.68923        0.00000        0.00000
   H        1.68923        0.00000        0.00000
}
energy('B3LYP')
frequencies('B3LYP')
--------------------------------------------------------------------------

    Molecular point group: d2h
  Charge       = 0
  Multiplicity = 1
  Basis Set: 6-311++G**
    Blend: 6-311++G**
  Basis Set: (6-311++G** AUX)
    Blend: AUG-CC-PVTZ-JKFIT
  @DF-RKS Final Energy:   -77.35484755920319
    Total Energy =                        -77.3548475592031934
    Molecular point group: d2h
  Basis Set: 6-311++G**
    Blend: 6-311++G**
  Basis Set: (6-311++G** AUX)
    Blend: AUG-CC-PVTZ-JKFIT
  @DF-RKS Final Energy:   -77.35484755920550
    Total Energy =                        -77.3548475592054956
  Basis Set: 6-311++G**
    Blend: 6-311++G**
  Basis Set: (6-311++G** AUX)
    Blend: AUG-CC-PVTZ-JKFIT
  Basis Set: 6-311++G**
    Blend: 6-311++G**
  Basis Set: (6-311++G** AUX)
    Blend: AUG-CC-PVTZ-JKFIT
  @DF-RKS Final Energy:   -77.35484755920550
    Total Energy =                        -77.3548475592054956
  Basis Set: 6-311++G**
  @DF-RKS Final Energy:   -77.35474644326450
    Total Energy =                        -77.3547464432645029
  @DF-RKS Final Energy:   -77.35494390044978
    Total Energy =                        -77.3549439004497827
  @DF-RKS Final Energy:   -77.35478403148105
    Total Energy =                        -77.3547840314810458
  @DF-RKS Final Energy:   -77.35490150851639
    Total Energy =                        -77.3549015085164058
  @DF-RKS Final Energy:   -77.35484744380929
    Total Energy =                        -77.3548474438092910
  @DF-RKS Final Energy:   -77.35484741302231
    Total Energy =                        -77.3548474130223269
  @DF-RKS Final Energy:   -77.35484744384370
    Total Energy =                        -77.3548474438436813
  @DF-RKS Final Energy:   -77.35484741308034
    Total Energy =                        -77.3548474130803356
  @DF-RKS Final Energy:   -77.35484724034589
    Total Energy =                        -77.3548472403458760
  Basis Set: (6-311++G** AUX)
    Blend: AUG-CC-PVTZ-JKFIT
  Basis Set: 6-311++G**
    Blend: 6-311++G**
  Basis Set: (6-311++G** AUX)
    Blend: AUG-CC-PVTZ-JKFIT
  @DF-RKS Final Energy:   -77.35484724041130
    Total Energy =                        -77.3548472404113028
  Basis Set: 6-311++G**
    Blend: 6-311++G**
  Basis Set: (6-311++G** AUX)
    Blend: AUG-CC-PVTZ-JKFIT
    Molecular point group: c2v
  Charge       = 0
  Multiplicity = 1
  Basis Set: 6-311++G**
    Blend: 6-311++G**
  Basis Set: (6-311++G** AUX)
    Blend: AUG-CC-PVTZ-JKFIT

    Orbital Energies [Eh]
    ---------------------

    Doubly Occupied:

       1A1   -10.192185     2A1   -10.190237     3A1    -0.755826
       4A1    -0.575725     5A1    -0.503813     1B1    -0.297167
       1B2    -0.297167

  @DF-RKS Final Energy:   -77.35484236831080

   => Energetics <=

    Nuclear Repulsion Energy =             24.3232393838559098
    One-Electron Energy =                -151.0459440577961061
    Two-Electron Energy =                  58.6508464729787704
    DFT Exchange-Correlation Energy =      -9.2829841673493885
    Empirical Dispersion Energy =           0.0000000000000000
    VV10 Nonlocal Energy =                  0.0000000000000000
    Total Energy =                        -77.3548423683108126

  Dipole Moment: [D]
     X:     0.0041      Y:     0.0000      Z:     0.0000     Total:     0.0041

    Molecular point group: c2v

    Geometry (in Angstrom), charge = 0, multiplicity = 1:

       Center              X                  Y                   Z               Mass
    ------------   -----------------  -----------------  -----------------  -----------------
         C           -0.614610333491     0.000000000000     0.000000000000    12.000000000000
         C            0.614309666509     0.000000000000     0.000000000000    12.000000000000
         H           -1.687440004874     0.000000000000     0.000000000000     1.007825032230
         H            1.691019995126     0.000000000000     0.000000000000     1.007825032230

  Basis Set: 6-311++G**
    Blend: 6-311++G**
  Basis Set: (6-311++G** AUX)
    Blend: AUG-CC-PVTZ-JKFIT

  -Total Gradient:
     Atom            X                  Y                   Z
    ------   -----------------  -----------------  -----------------
       1       -0.049790483523     0.000000000000     0.000000000000
       2        0.046958993920     0.000000000000     0.000000000000
       3       -0.006918311072     0.000000000000     0.000000000000
       4        0.009749799750     0.000000000000     0.000000000000

  Vibration                       4                   5                   6
  Freq [cm^-1]                 287.0252            287.0266            685.4945
  Irrep                          B1g                 B2g                 B2g
  Reduced mass [u]              2.1635              2.1635              1.6304
  Force const [mDyne/A]         0.1050              0.1050              0.4514

  Vibration                       7                   8                   9
  Freq [cm^-1]                 685.4949            821.0683            821.0684
  Irrep                          B1g                 B2u                 B1u
  Reduced mass [u]              1.6304              1.0848              1.0848
  Force const [mDyne/A]         0.4514              0.4309              0.4309

  Vibration                       10                  11                  12
  Freq [cm^-1]                1900.6312           3312.6746           3399.7491
  Irrep                           Ag                 B3u                  Ag
  Reduced mass [u]              4.0427              1.0848              1.2074
  Force const [mDyne/A]         8.6044              7.0140              8.2225

  ==> Thermochemistry Components <==

  Entropy, S
    Electronic S            0.000 [cal/(mol K)]        0.000 [J/(mol K)]       0.00000000 [mEh/K] (multiplicity = 1)
    Translational S        35.704 [cal/(mol K)]      149.387 [J/(mol K)]       0.05689862 [mEh/K] (mol. weight = 26.0157 [u], P = 101325.00 [Pa])
    Rotational S           10.952 [cal/(mol K)]       45.824 [J/(mol K)]       0.01745345 [mEh/K] (symmetry no. = 2)
    Vibrational S           4.014 [cal/(mol K)]       16.795 [J/(mol K)]       0.00639691 [mEh/K]
  Total S                  50.671 [cal/(mol K)]      212.006 [J/(mol K)]       0.08074897 [mEh/K]
  Correction S              0.000 [cal/(mol K)]        0.000 [J/(mol K)]       0.00000000 [mEh/K]

  Constant volume heat capacity, Cv
    Electronic Cv           0.000 [cal/(mol K)]        0.000 [J/(mol K)]       0.00000000 [mEh/K]
    Translational Cv        2.981 [cal/(mol K)]       12.472 [J/(mol K)]       0.00475022 [mEh/K]
    Rotational Cv           1.987 [cal/(mol K)]        8.314 [J/(mol K)]       0.00316681 [mEh/K]
    Vibrational Cv          6.361 [cal/(mol K)]       26.614 [J/(mol K)]       0.01013668 [mEh/K]
  Total Cv                 11.329 [cal/(mol K)]       47.400 [J/(mol K)]       0.01805370 [mEh/K]
  Correction Cv             0.000 [cal/(mol K)]        0.000 [J/(mol K)]       0.00000000 [mEh/K]

  Constant pressure heat capacity, Cp
    Electronic Cp           0.000 [cal/(mol K)]        0.000 [J/(mol K)]       0.00000000 [mEh/K]
    Translational Cp        4.968 [cal/(mol K)]       20.786 [J/(mol K)]       0.00791703 [mEh/K]
    Rotational Cp           1.987 [cal/(mol K)]        8.314 [J/(mol K)]       0.00316681 [mEh/K]
    Vibrational Cp          6.361 [cal/(mol K)]       26.614 [J/(mol K)]       0.01013668 [mEh/K]
  Total Cp                 13.316 [cal/(mol K)]       55.714 [J/(mol K)]       0.02122051 [mEh/K]
  Correction Cp             0.000 [cal/(mol K)]        0.000 [J/(mol K)]       0.00000000 [mEh/K]

  ==> Thermochemistry Energy Analysis <==

  Raw electronic energy, E0
  Total E0, Electronic energy at well bottom at 0 [K]                  -77.35484756 [Eh]

  Zero-point energy, ZPE_vib = Sum_i nu_i / 2
    Electronic ZPE          0.000 [kcal/mol]        0.000 [kJ/mol]       0.00000000 [Eh]
    Translational ZPE       0.000 [kcal/mol]        0.000 [kJ/mol]       0.00000000 [Eh]
    Rotational ZPE          0.000 [kcal/mol]        0.000 [kJ/mol]       0.00000000 [Eh]
    Vibrational ZPE        17.441 [kcal/mol]       72.974 [kJ/mol]       0.02779418 [Eh]        6100.116 [cm^-1]
  Correction ZPE           17.441 [kcal/mol]       72.974 [kJ/mol]       0.02779418 [Eh]        6100.116 [cm^-1]
  Total ZPE, Electronic energy at 0 [K]                                -77.32705338 [Eh]

  Thermal Energy, E (includes ZPE)
    Electronic E            0.000 [kcal/mol]        0.000 [kJ/mol]       0.00000000 [Eh]
    Translational E         0.889 [kcal/mol]        3.718 [kJ/mol]       0.00141628 [Eh]
    Rotational E            0.592 [kcal/mol]        2.479 [kJ/mol]       0.00094418 [Eh]
    Vibrational E          18.230 [kcal/mol]       76.272 [kJ/mol]       0.02905065 [Eh]
  Correction E             19.711 [kcal/mol]       82.470 [kJ/mol]       0.03141111 [Eh]
  Total E, Electronic energy at  298.15 [K]                            -77.32343644 [Eh]

  Enthalpy, H_trans = E_trans + k_B * T
    Electronic H            0.000 [kcal/mol]        0.000 [kJ/mol]       0.00000000 [Eh]
    Translational H         1.481 [kcal/mol]        6.197 [kJ/mol]       0.00236046 [Eh]
    Rotational H            0.592 [kcal/mol]        2.479 [kJ/mol]       0.00094418 [Eh]
    Vibrational H          18.230 [kcal/mol]       76.272 [kJ/mol]       0.02905065 [Eh]
  Correction H             20.303 [kcal/mol]       84.949 [kJ/mol]       0.03235530 [Eh]
  Total H, Enthalpy at  298.15 [K]                                     -77.32249226 [Eh]

  Gibbs free energy, G = H - T * S
    Electronic G            0.000 [kcal/mol]        0.000 [kJ/mol]       0.00000000 [Eh]
    Translational G        -9.164 [kcal/mol]      -38.342 [kJ/mol]      -0.01460386 [Eh]
    Rotational G           -2.673 [kcal/mol]      -11.183 [kJ/mol]      -0.00425956 [Eh]
    Vibrational G          17.033 [kcal/mol]       71.265 [kJ/mol]       0.02714342 [Eh]
  Correction G              5.196 [kcal/mol]       21.739 [kJ/mol]       0.00827999 [Eh]
  Total G, Free enthalpy at  298.15 [K]                                -77.34656757 [Eh]

*** Psi4 exiting successfully. Buy a developer a beer!
