                               Psi4 1.3.2 release

  ==> Input File <==

--------------------------------------------------------------------------
set basis  6-31++G**
molecule {
0 1
   C       -1.22151       -0.69325        0.00000
   C       -1.21114        0.71122        0.00000
   C       -0.01037       -1.40452        0.00000
   C        0.01037        1.40452        0.00000
   C        1.21114       -0.71122        0.00000
   C        1.22151        0.69325        0.00000
   H       -2.17311       -1.23332        0.00000
   H       -2.15464        1.26533        0.00000
   H       -0.01848       -2.49865        0.00000
   H        0.01848        2.49865        0.00000
   H        2.15464       -1.26533        0.00000
   H        2.17311        1.23332        0.00000
}
energy('m06-2x')
frequencies('m06-2x')
--------------------------------------------------------------------------

    Molecular point group: c2h
  Charge       = 0
  Multiplicity = 1
  Basis Set: 6-31++G**
    Blend: 6-31++G**
  Basis Set: (6-31++G** AUX)
    Blend: AUG-CC-PVDZ-JKFIT
  @DF-RKS Final Energy:  -232.15102792214833
    Total Energy =                       -232.1510279221483302
    Molecular point group: c2h
  Basis Set: 6-31++G**
    Blend: 6-31++G**
  Basis Set: (6-31++G** AUX)
    Blend: AUG-CC-PVDZ-JKFIT
  @DF-RKS Final Energy:  -232.15102793449097
    Total Energy =                       -232.1510279344909975
  Basis Set: 6-31++G**
    Blend: 6-31++G**
  Basis Set: (6-31++G** AUX)
    Blend: AUG-CC-PVDZ-JKFIT
  Basis Set: 6-31++G**
    Blend: 6-31++G**
  Basis Set: (6-31++G** AUX)
    Blend: AUG-CC-PVDZ-JKFIT
  @DF-RKS Final Energy:  -232.15102792930372
    Total Energy =                       -232.1510279293036945
  Basis Set: 6-31++G**
  @DF-RKS Final Energy:  -232.15115389492189
    Total Energy =                       -232.1511538949218902
  @DF-RKS Final Energy:  -232.15117204254187
    Total Energy =                       -232.1511720425419014
  @DF-RKS Final Energy:  -232.15112671958980
    Total Energy =                       -232.1511267195898256
  @DF-RKS Final Energy:  -232.15109228403594
    Total Energy =                       -232.1510922840359115
  @DF-RKS Final Energy:  -232.15113962176596
    Total Energy =                       -232.1511396217659637
  @DF-RKS Final Energy:  -232.15114114986986
    Total Energy =                       -232.1511411498698862
  @DF-RKS Final Energy:  -232.15111903734123
    Total Energy =                       -232.1511190373412603
  @DF-RKS Final Energy:  -232.15112017554284
    Total Energy =                       -232.1511201755428715
  @DF-RKS Final Energy:  -232.15108643533407
    Total Energy =                       -232.1510864353340367
  @DF-RKS Final Energy:  -232.15112883869475
    Total Energy =                       -232.1511288386947456
  @DF-RKS Final Energy:  -232.15105121309443
    Total Energy =                       -232.1510512130944335
  @DF-RKS Final Energy:  -232.15106485173212
    Total Energy =                       -232.1510648517320874
  @DF-RKS Final Energy:  -232.15112025037794
    Total Energy =                       -232.1511202503779145
  @DF-RKS Final Energy:  -232.15120010433458
    Total Energy =                       -232.1512001043345776
  @DF-RKS Final Energy:  -232.15110135858725
    Total Energy =                       -232.1511013585872547
  @DF-RKS Final Energy:  -232.15113105422523
    Total Energy =                       -232.1511310542252318
  @DF-RKS Final Energy:  -232.15110372554884
    Total Energy =                       -232.1511037255488077
  @DF-RKS Final Energy:  -232.15109625502907
    Total Energy =                       -232.1510962550290742
  @DF-RKS Final Energy:  -232.15102762332339
    Total Energy =                       -232.1510276233233867
  @DF-RKS Final Energy:  -232.15102750847379
    Total Energy =                       -232.1510275084737884
  @DF-RKS Final Energy:  -232.15102757997002
    Total Energy =                       -232.1510275799699912
  @DF-RKS Final Energy:  -232.15102746088718
    Total Energy =                       -232.1510274608871782
  @DF-RKS Final Energy:  -232.15102772380385
    Total Energy =                       -232.1510277238038498
  @DF-RKS Final Energy:  -232.15102771769801
    Total Energy =                       -232.1510277176979855
  @DF-RKS Final Energy:  -232.15102768384071
    Total Energy =                       -232.1510276838407094
  @DF-RKS Final Energy:  -232.15102754888679
    Total Energy =                       -232.1510275488867592
  @DF-RKS Final Energy:  -232.15102754319074
    Total Energy =                       -232.1510275431907075
  @DF-RKS Final Energy:  -232.15102668271595
    Total Energy =                       -232.1510266827159228
  @DF-RKS Final Energy:  -232.15102726462737
    Total Energy =                       -232.1510272646273449
  @DF-RKS Final Energy:  -232.15102648611386
    Total Energy =                       -232.1510264861138637
  @DF-RKS Final Energy:  -232.15102724070846
    Total Energy =                       -232.1510272407084585
  @DF-RKS Final Energy:  -232.15102528464857
    Total Energy =                       -232.1510252846485400
  @DF-RKS Final Energy:  -232.15102563007366
    Total Energy =                       -232.1510256300736614
  @DF-RKS Final Energy:  -232.15102454624258
    Total Energy =                       -232.1510245462425530
  @DF-RKS Final Energy:  -232.15102634138046
    Total Energy =                       -232.1510263413804296
  Basis Set: (6-31++G** AUX)
    Blend: AUG-CC-PVDZ-JKFIT
  Basis Set: 6-31++G**
    Blend: 6-31++G**
  Basis Set: (6-31++G** AUX)
    Blend: AUG-CC-PVDZ-JKFIT
  @DF-RKS Final Energy:  -232.15102547992123
    Total Energy =                       -232.1510254799212305
  Basis Set: 6-31++G**
    Blend: 6-31++G**
  Basis Set: (6-31++G** AUX)
    Blend: AUG-CC-PVDZ-JKFIT
    Molecular point group: cs
  Charge       = 0
  Multiplicity = 1
  Basis Set: 6-31++G**
    Blend: 6-31++G**
  Basis Set: (6-31++G** AUX)
    Blend: AUG-CC-PVDZ-JKFIT

    Orbital Energies [Eh]
    ---------------------

    Doubly Occupied:

       1Ap   -10.560980     2Ap   -10.560636     3Ap   -10.560611
       4Ap   -10.559893     5Ap   -10.559874     6Ap   -10.559516
       7Ap    -0.955321     8Ap    -0.840987     9Ap    -0.840981
      10Ap    -0.684642    11Ap    -0.684628    12Ap    -0.596663
      13Ap    -0.534836    14Ap    -0.509544    15Ap    -0.487260
      16Ap    -0.487247     1App   -0.434683    17Ap    -0.403151
      18Ap    -0.403142     2App   -0.306351     3App   -0.306344

  @DF-RKS Final Energy:  -232.15102541309517

   => Energetics <=

    Nuclear Repulsion Energy =            202.0133184684007119
    One-Electron Energy =                -710.9097404481600506
    Two-Electron Energy =                 293.4349948060059319
    DFT Exchange-Correlation Energy =     -16.6895982393417412
    Empirical Dispersion Energy =           0.0000000000000000
    VV10 Nonlocal Energy =                  0.0000000000000000
    Total Energy =                       -232.1510254130951409

  Dipole Moment: [D]
     X:    -0.0009      Y:    -0.0015      Z:     0.0000     Total:     0.0018

    Molecular point group: cs

    Geometry (in Angstrom), charge = 0, multiplicity = 1:

       Center              X                  Y                   Z               Mass
    ------------   -----------------  -----------------  -----------------  -----------------
         C           -1.221510000000    -0.693250000000     0.000000000000    12.000000000000
         C           -1.211140000000     0.711220000000     0.000000000000    12.000000000000
         C           -0.010370000000    -1.404520000000     0.000000000000    12.000000000000
         C            0.010370000000     1.404520000000     0.000000000000    12.000000000000
         C            1.211140000000    -0.711220000000     0.000000000000    12.000000000000
         C            1.221510000000     0.693250000000     0.000000000000    12.000000000000
         H           -2.173110000000    -1.233320000000     0.000000000000     1.007825032230
         H           -2.154640000000     1.264012202829     0.000000000000     1.007825032230
         H           -0.018480000000    -2.497332202829     0.000000000000     1.007825032230
         H            0.018480000000     2.499967797171     0.000000000000     1.007825032230
         H            2.154640000000    -1.266647797171     0.000000000000     1.007825032230
         H            2.173110000000     1.233320000000     0.000000000000     1.007825032230

  Basis Set: 6-31++G**
    Blend: 6-31++G**
  Basis Set: (6-31++G** AUX)
    Blend: AUG-CC-PVDZ-JKFIT

  -Total Gradient:
     Atom            X                  Y                   Z
    ------   -----------------  -----------------  -----------------
       1       -0.003486384237    -0.001907470070     0.000000000000
       2       -0.003665545809     0.002288828958     0.000000000000
       3        0.000023913499    -0.004791573216     0.000000000000
       4        0.000043821209     0.003127207845     0.000000000000
       5        0.003118269880    -0.001687696936     0.000000000000
       6        0.003330908467     0.001907689868     0.000000000000
       7       -0.005144291783    -0.002951996585     0.000000000000
       8       -0.004790701818     0.002717543785     0.000000000000
       9       -0.000034661221    -0.005052663509     0.000000000000
      10        0.000035334365     0.006790032662     0.000000000000
      11        0.005418744565    -0.003380457728     0.000000000000
      12        0.005152528863     0.002945515910     0.000000000000

  Vibration                       7                   8                   9
  Freq [cm^-1]                 430.9235            431.8908            597.4731
  Irrep                           Au                  Au                  Ag
  Reduced mass [u]              2.9584              2.9749              5.7093
  Force const [mDyne/A]         0.3237              0.3269              1.2008

  Vibration                       10                  11                  12
  Freq [cm^-1]                 607.1859            719.8533            739.8027
  Irrep                           Ag                  Bg                  Au
  Reduced mass [u]              5.9066              3.7971              1.0849
  Force const [mDyne/A]         1.2830              1.1593              0.3498

  Vibration                       13                  14                  15
  Freq [cm^-1]                 907.7613            909.6163           1007.1137
  Irrep                           Bg                  Bg                  Bu
  Reduced mass [u]              1.2479              1.2479              6.5333
  Force const [mDyne/A]         0.6058              0.6083              3.9043

  Vibration                       16                  17                  18
  Freq [cm^-1]                1008.2708           1025.4027           1026.9634
  Irrep                           Ag                  Au                  Au
  Reduced mass [u]              4.7018              1.3558              1.3523
  Force const [mDyne/A]         2.8162              0.8399              0.8403

  Vibration                       19                  20                  21
  Freq [cm^-1]                1049.4306           1062.7038           1063.4317
  Irrep                           Bg                  Bu                  Bu
  Reduced mass [u]              1.2312              1.7227              1.7276
  Force const [mDyne/A]         0.7989              1.1463              1.1511

  Vibration                       22                  23                  24
  Freq [cm^-1]                1123.7655           1161.3281           1230.7960
  Irrep                           Ag                  Bu                  Ag
  Reduced mass [u]              1.2540              1.2773              1.1420
  Force const [mDyne/A]         0.9331              1.0150              1.0193

  Vibration                       25                  26                  27
  Freq [cm^-1]                1305.1889           1317.9712           1512.2761
  Irrep                           Bu                  Ag                  Bu
  Reduced mass [u]              3.4166              1.2844              1.9825
  Force const [mDyne/A]         3.4292              1.3145              2.6714

  Vibration                       28                  29                  30
  Freq [cm^-1]                1514.5677           1637.4153           1658.3171
  Irrep                           Bu                  Ag                  Ag
  Reduced mass [u]              1.9767              5.1712              4.3502
  Force const [mDyne/A]         2.6716              8.1688              7.0485

  Vibration                       31                  32                  33
  Freq [cm^-1]                3130.0269           3134.4442           3140.5017
  Irrep                           Bu                  Ag                  Ag
  Reduced mass [u]              1.0839              1.0899              1.0876
  Force const [mDyne/A]         6.2564              6.3088              6.3198

  Vibration                       34                  35                  36
  Freq [cm^-1]                3154.4140           3154.9271           3165.2198
  Irrep                           Bu                  Bu                  Ag
  Reduced mass [u]              1.0960              1.0958              1.0987
  Force const [mDyne/A]         6.4251              6.4264              6.4852

  ==> Thermochemistry Components <==

  Entropy, S
    Electronic S            0.000 [cal/(mol K)]        0.000 [J/(mol K)]       0.00000000 [mEh/K] (multiplicity = 1)
    Translational S        38.979 [cal/(mol K)]      163.089 [J/(mol K)]       0.06211726 [mEh/K] (mol. weight = 78.0470 [u], P = 101325.00 [Pa])
    Rotational S           24.318 [cal/(mol K)]      101.746 [J/(mol K)]       0.03875307 [mEh/K] (symmetry no. = 2)
    Vibrational S           4.215 [cal/(mol K)]       17.634 [J/(mol K)]       0.00671646 [mEh/K]
  Total S                  67.512 [cal/(mol K)]      282.469 [J/(mol K)]       0.10758679 [mEh/K]
  Correction S              0.000 [cal/(mol K)]        0.000 [J/(mol K)]       0.00000000 [mEh/K]

  Constant volume heat capacity, Cv
    Electronic Cv           0.000 [cal/(mol K)]        0.000 [J/(mol K)]       0.00000000 [mEh/K]
    Translational Cv        2.981 [cal/(mol K)]       12.472 [J/(mol K)]       0.00475022 [mEh/K]
    Rotational Cv           2.981 [cal/(mol K)]       12.472 [J/(mol K)]       0.00475022 [mEh/K]
    Vibrational Cv         10.964 [cal/(mol K)]       45.874 [J/(mol K)]       0.01747248 [mEh/K]
  Total Cv                 16.926 [cal/(mol K)]       70.817 [J/(mol K)]       0.02697291 [mEh/K]
  Correction Cv             0.000 [cal/(mol K)]        0.000 [J/(mol K)]       0.00000000 [mEh/K]

  Constant pressure heat capacity, Cp
    Electronic Cp           0.000 [cal/(mol K)]        0.000 [J/(mol K)]       0.00000000 [mEh/K]
    Translational Cp        4.968 [cal/(mol K)]       20.786 [J/(mol K)]       0.00791703 [mEh/K]
    Rotational Cp           2.981 [cal/(mol K)]       12.472 [J/(mol K)]       0.00475022 [mEh/K]
    Vibrational Cp         10.964 [cal/(mol K)]       45.874 [J/(mol K)]       0.01747248 [mEh/K]
  Total Cp                 18.913 [cal/(mol K)]       79.132 [J/(mol K)]       0.03013972 [mEh/K]
  Correction Cp             0.000 [cal/(mol K)]        0.000 [J/(mol K)]       0.00000000 [mEh/K]

  ==> Thermochemistry Energy Analysis <==

  Raw electronic energy, E0
  Total E0, Electronic energy at well bottom at 0 [K]                 -232.15102793 [Eh]

  Zero-point energy, ZPE_vib = Sum_i nu_i / 2
    Electronic ZPE          0.000 [kcal/mol]        0.000 [kJ/mol]       0.00000000 [Eh]
    Translational ZPE       0.000 [kcal/mol]        0.000 [kJ/mol]       0.00000000 [Eh]
    Rotational ZPE          0.000 [kcal/mol]        0.000 [kJ/mol]       0.00000000 [Eh]
    Vibrational ZPE        62.800 [kcal/mol]      262.754 [kJ/mol]       0.10007759 [Eh]       21964.491 [cm^-1]
  Correction ZPE           62.800 [kcal/mol]      262.754 [kJ/mol]       0.10007759 [Eh]       21964.491 [cm^-1]
  Total ZPE, Electronic energy at 0 [K]                               -232.05095034 [Eh]

  Thermal Energy, E (includes ZPE)
    Electronic E            0.000 [kcal/mol]        0.000 [kJ/mol]       0.00000000 [Eh]
    Translational E         0.889 [kcal/mol]        3.718 [kJ/mol]       0.00141628 [Eh]
    Rotational E            0.889 [kcal/mol]        3.718 [kJ/mol]       0.00141628 [Eh]
    Vibrational E          63.743 [kcal/mol]      266.702 [kJ/mol]       0.10158133 [Eh]
  Correction E             65.521 [kcal/mol]      274.139 [kJ/mol]       0.10441389 [Eh]
  Total E, Electronic energy at  298.15 [K]                           -232.04661404 [Eh]

  Enthalpy, H_trans = E_trans + k_B * T
    Electronic H            0.000 [kcal/mol]        0.000 [kJ/mol]       0.00000000 [Eh]
    Translational H         1.481 [kcal/mol]        6.197 [kJ/mol]       0.00236046 [Eh]
    Rotational H            0.889 [kcal/mol]        3.718 [kJ/mol]       0.00141628 [Eh]
    Vibrational H          63.743 [kcal/mol]      266.702 [kJ/mol]       0.10158133 [Eh]
  Correction H             66.113 [kcal/mol]      276.618 [kJ/mol]       0.10535807 [Eh]
  Total H, Enthalpy at  298.15 [K]                                    -232.04566986 [Eh]

  Gibbs free energy, G = H - T * S
    Electronic G            0.000 [kcal/mol]        0.000 [kJ/mol]       0.00000000 [Eh]
    Translational G       -10.140 [kcal/mol]      -42.428 [kJ/mol]      -0.01615980 [Eh]
    Rotational G           -6.362 [kcal/mol]      -26.617 [kJ/mol]      -0.01013795 [Eh]
    Vibrational G          62.487 [kcal/mol]      261.444 [kJ/mol]       0.09957882 [Eh]
  Correction G             45.985 [kcal/mol]      192.399 [kJ/mol]       0.07328107 [Eh]
  Total G, Free enthalpy at  298.15 [K]                               -232.07774686 [Eh]

*** Psi4 exiting successfully. Buy a developer a beer!
