                               Psi4 1.3.2 release

  ==> Input File <==

--------------------------------------------------------------------------
set basis  cc-pVDZ
molecule {
0 1
   O        0.00000        0.00000        0.49152
   C        0.00000        0.00000       -0.65516
}
energy('CCSD')
frequencies('CCSD')
--------------------------------------------------------------------------

    Molecular point group: c2v
  Charge       = 0
  Multiplicity = 1
  Basis Set: CC-PVDZ
    Blend: CC-PVDZ
  @RHF Final Energy:  -112.74677848951259
    Total Energy =                       -112.7467784895125931
      * MP2 total energy                      = -113.040846644819851
      * CCSD total energy                     = -113.047407808646085
    Molecular point group: c2v
  Basis Set: CC-PVDZ
    Blend: CC-PVDZ
  @RHF Final Energy:  -112.74677848951258
    Total Energy =                       -112.7467784895125789
      * MP2 total energy                      = -113.040846644870570
      * CCSD total energy                     = -113.047407811188975
  Basis Set: CC-PVDZ
    Blend: CC-PVDZ
  @RHF Final Energy:  -112.74677848951258
    Total Energy =                       -112.7467784895125789
      * MP2 total energy                      = -113.040846644870570
      * CCSD total energy                     = -113.047407810568416
  Basis Set: CC-PVDZ
    Blend: CC-PVDZ
  @RHF Final Energy:  -112.74695537648739
    Total Energy =                       -112.7469553764873922
      * MP2 total energy                      = -113.040844543660484
      * CCSD total energy                     = -113.047444566218445
  Basis Set: CC-PVDZ
    Blend: CC-PVDZ
  @RHF Final Energy:  -112.74659724668132
    Total Energy =                       -112.7465972466813184
      * MP2 total energy                      = -113.040844507174839
      * CCSD total energy                     = -113.047366698293615
  Basis Set: CC-PVDZ
    Blend: CC-PVDZ
  @RHF Final Energy:  -112.74677841061171
    Total Energy =                       -112.7467784106117108
      * MP2 total energy                      = -113.040846644859798
      * CCSD total energy                     = -113.047407793410883
    Molecular point group: cs
  Charge       = 0
  Multiplicity = 1
  Basis Set: CC-PVDZ
    Blend: CC-PVDZ

    Orbital Energies [Eh]
    ---------------------

    Doubly Occupied:

       1Ap   -20.669740     2Ap   -11.374149     3Ap    -1.510146
       4Ap    -0.800403     1App   -0.626499     5Ap    -0.626499
       6Ap    -0.550927

  @RHF Final Energy:  -112.74677841061180

   => Energetics <=

    Nuclear Repulsion Energy =             22.1513379928885605
    One-Electron Energy =                -197.4795065768250311
    Two-Electron Energy =                  62.5813901733246709
    Total Energy =                       -112.7467784106117961

  Dipole Moment: [D]
     X:     0.0000      Y:     0.0003      Z:    -0.3242     Total:     0.3242

      * MP2 total energy                      = -113.040846644859883
      * CCSD total energy                     = -113.047407793410969
    Molecular point group: cs

    Geometry (in Bohr), charge = 0, multiplicity = 1:

       Center              X                  Y                   Z
    ------------   -----------------  -----------------  -----------------
         O            0.000000000000    -0.000818521498     0.928844906150
         C            0.000000000000     0.001091015123    -1.238066247390

  -Total gradient:
     Atom            X                  Y                   Z
    ------   -----------------  -----------------  -----------------
       1        0.000000000000    -0.000017970717     0.020392877774
       2        0.000000000000     0.000017970717    -0.020392877774

  Vibration                       4                   5                   6
  Freq [cm^-1]                 190.4500            190.4500           2145.9031
  Irrep                           B2                  B1                  A1
  Reduced mass [u]             13.4388             13.4388             13.4388
  Force const [mDyne/A]         0.2872              0.2872             36.4611

  ==> Thermochemistry Components <==

  Entropy, S
    Electronic S            0.000 [cal/(mol K)]        0.000 [J/(mol K)]       0.00000000 [mEh/K] (multiplicity = 1)
    Translational S        35.923 [cal/(mol K)]      150.302 [J/(mol K)]       0.05724692 [mEh/K] (mol. weight = 27.9949 [u], P = 101325.00 [Pa])
    Rotational S           11.343 [cal/(mol K)]       47.458 [J/(mol K)]       0.01807582 [mEh/K] (symmetry no. = 1)
    Vibrational S           4.448 [cal/(mol K)]       18.609 [J/(mol K)]       0.00708771 [mEh/K]
  Total S                  51.713 [cal/(mol K)]      216.369 [J/(mol K)]       0.08241046 [mEh/K]
  Correction S              0.000 [cal/(mol K)]        0.000 [J/(mol K)]       0.00000000 [mEh/K]

  Constant volume heat capacity, Cv
    Electronic Cv           0.000 [cal/(mol K)]        0.000 [J/(mol K)]       0.00000000 [mEh/K]
    Translational Cv        2.981 [cal/(mol K)]       12.472 [J/(mol K)]       0.00475022 [mEh/K]
    Rotational Cv           1.987 [cal/(mol K)]        8.314 [J/(mol K)]       0.00316681 [mEh/K]
    Vibrational Cv          3.713 [cal/(mol K)]       15.535 [J/(mol K)]       0.00591683 [mEh/K]
  Total Cv                  8.681 [cal/(mol K)]       36.321 [J/(mol K)]       0.01383386 [mEh/K]
  Correction Cv             0.000 [cal/(mol K)]        0.000 [J/(mol K)]       0.00000000 [mEh/K]

  Constant pressure heat capacity, Cp
    Electronic Cp           0.000 [cal/(mol K)]        0.000 [J/(mol K)]       0.00000000 [mEh/K]
    Translational Cp        4.968 [cal/(mol K)]       20.786 [J/(mol K)]       0.00791703 [mEh/K]
    Rotational Cp           1.987 [cal/(mol K)]        8.314 [J/(mol K)]       0.00316681 [mEh/K]
    Vibrational Cp          3.713 [cal/(mol K)]       15.535 [J/(mol K)]       0.00591683 [mEh/K]
  Total Cp                 10.668 [cal/(mol K)]       44.635 [J/(mol K)]       0.01700067 [mEh/K]
  Correction Cp             0.000 [cal/(mol K)]        0.000 [J/(mol K)]       0.00000000 [mEh/K]

  ==> Thermochemistry Energy Analysis <==

  Raw electronic energy, E0
  Total E0, Electronic energy at well bottom at 0 [K]                 -113.04740781 [Eh]

  Zero-point energy, ZPE_vib = Sum_i nu_i / 2
    Electronic ZPE          0.000 [kcal/mol]        0.000 [kJ/mol]       0.00000000 [Eh]
    Translational ZPE       0.000 [kcal/mol]        0.000 [kJ/mol]       0.00000000 [Eh]
    Rotational ZPE          0.000 [kcal/mol]        0.000 [kJ/mol]       0.00000000 [Eh]
    Vibrational ZPE         3.612 [kcal/mol]       15.114 [kJ/mol]       0.00575648 [Eh]        1263.402 [cm^-1]
  Correction ZPE            3.612 [kcal/mol]       15.114 [kJ/mol]       0.00575648 [Eh]        1263.402 [cm^-1]
  Total ZPE, Electronic energy at 0 [K]                               -113.04165133 [Eh]

  Thermal Energy, E (includes ZPE)
    Electronic E            0.000 [kcal/mol]        0.000 [kJ/mol]       0.00000000 [Eh]
    Translational E         0.889 [kcal/mol]        3.718 [kJ/mol]       0.00141628 [Eh]
    Rotational E            0.592 [kcal/mol]        2.479 [kJ/mol]       0.00094418 [Eh]
    Vibrational E           4.335 [kcal/mol]       18.138 [kJ/mol]       0.00690849 [Eh]
  Correction E              5.816 [kcal/mol]       24.336 [kJ/mol]       0.00926895 [Eh]
  Total E, Electronic energy at  298.15 [K]                           -113.03813886 [Eh]

  Enthalpy, H_trans = E_trans + k_B * T
    Electronic H            0.000 [kcal/mol]        0.000 [kJ/mol]       0.00000000 [Eh]
    Translational H         1.481 [kcal/mol]        6.197 [kJ/mol]       0.00236046 [Eh]
    Rotational H            0.592 [kcal/mol]        2.479 [kJ/mol]       0.00094418 [Eh]
    Vibrational H           4.335 [kcal/mol]       18.138 [kJ/mol]       0.00690849 [Eh]
  Correction H              6.409 [kcal/mol]       26.815 [kJ/mol]       0.01021314 [Eh]
  Total H, Enthalpy at  298.15 [K]                                    -113.03719467 [Eh]

  Gibbs free energy, G = H - T * S
    Electronic G            0.000 [kcal/mol]        0.000 [kJ/mol]       0.00000000 [Eh]
    Translational G        -9.229 [kcal/mol]      -38.615 [kJ/mol]      -0.01470771 [Eh]
    Rotational G           -2.789 [kcal/mol]      -11.671 [kJ/mol]      -0.00444512 [Eh]
    Vibrational G           3.009 [kcal/mol]       12.590 [kJ/mol]       0.00479529 [Eh]
  Correction G             -9.009 [kcal/mol]      -37.696 [kJ/mol]      -0.01435754 [Eh]
  Total G, Free enthalpy at  298.15 [K]                               -113.06176535 [Eh]

*** Psi4 exiting successfully. Buy a developer a beer!
