                               Psi4 1.3.2 release

  ==> Input File <==

--------------------------------------------------------------------------
set basis  6-31++g**
molecule {
0 1
   C       -0.61446        0.00000        0.00000
   C        0.61446        0.00000        0.00000
   H       -1.68923        0.00000        0.00000
   H        1.68923        0.00000        0.00000
}
energy('m06-2x')
frequencies('m06-2x')
--------------------------------------------------------------------------

    Molecular point group: d2h
  Charge       = 0
  Multiplicity = 1
  Basis Set: 6-31++G**
    Blend: 6-31++G**
  Basis Set: (6-31++G** AUX)
    Blend: AUG-CC-PVDZ-JKFIT
  @DF-RKS Final Energy:   -77.29564262236738
    Total Energy =                        -77.2956426223673816
    Molecular point group: d2h
  Basis Set: 6-31++G**
    Blend: 6-31++G**
  Basis Set: (6-31++G** AUX)
    Blend: AUG-CC-PVDZ-JKFIT
  @DF-RKS Final Energy:   -77.29564262243797
    Total Energy =                        -77.2956426224379527
  Basis Set: 6-31++G**
    Blend: 6-31++G**
  Basis Set: (6-31++G** AUX)
    Blend: AUG-CC-PVDZ-JKFIT
  Basis Set: 6-31++G**
    Blend: 6-31++G**
  Basis Set: (6-31++G** AUX)
    Blend: AUG-CC-PVDZ-JKFIT
  @DF-RKS Final Energy:   -77.29564262243797
    Total Energy =                        -77.2956426224379527
  Basis Set: 6-31++G**
  @DF-RKS Final Energy:   -77.29555070052328
    Total Energy =                        -77.2955507005232789
  @DF-RKS Final Energy:   -77.29572945505447
    Total Energy =                        -77.2957294550544702
  @DF-RKS Final Energy:   -77.29559896491361
    Total Energy =                        -77.2955989649136086
  @DF-RKS Final Energy:   -77.29567632967154
    Total Energy =                        -77.2956763296715366
  @DF-RKS Final Energy:   -77.29564250589262
    Total Energy =                        -77.2956425058926015
  @DF-RKS Final Energy:   -77.29564247868196
    Total Energy =                        -77.2956424786819554
  @DF-RKS Final Energy:   -77.29564250563075
    Total Energy =                        -77.2956425056307523
  @DF-RKS Final Energy:   -77.29564247859670
    Total Energy =                        -77.2956424785967044
  @DF-RKS Final Energy:   -77.29564230723260
    Total Energy =                        -77.2956423072325975
  Basis Set: (6-31++G** AUX)
    Blend: AUG-CC-PVDZ-JKFIT
  Basis Set: 6-31++G**
    Blend: 6-31++G**
  Basis Set: (6-31++G** AUX)
    Blend: AUG-CC-PVDZ-JKFIT
  @DF-RKS Final Energy:   -77.29564230716491
    Total Energy =                        -77.2956423071649255
  Basis Set: 6-31++G**
    Blend: 6-31++G**
  Basis Set: (6-31++G** AUX)
    Blend: AUG-CC-PVDZ-JKFIT
    Molecular point group: c2v
  Charge       = 0
  Multiplicity = 1
  Basis Set: 6-31++G**
    Blend: 6-31++G**
  Basis Set: (6-31++G** AUX)
    Blend: AUG-CC-PVDZ-JKFIT

    Orbital Energies [Eh]
    ---------------------

    Doubly Occupied:

       1A1   -10.569735     2A1   -10.567452     3A1    -0.844094
       4A1    -0.647218     5A1    -0.560496     1B2    -0.350134
       1B1    -0.350134

  @DF-RKS Final Energy:   -77.29563723552295

   => Energetics <=

    Nuclear Repulsion Energy =             24.3232393838559098
    One-Electron Energy =                -150.9245845001931059
    Two-Electron Energy =                  54.8126367612620129
    DFT Exchange-Correlation Energy =      -5.5069288804477656
    Empirical Dispersion Energy =           0.0000000000000000
    VV10 Nonlocal Energy =                  0.0000000000000000
    Total Energy =                        -77.2956372355229462

  Dipole Moment: [D]
     X:     0.0042      Y:     0.0000      Z:     0.0000     Total:     0.0042

    Molecular point group: c2v

    Geometry (in Angstrom), charge = 0, multiplicity = 1:

       Center              X                  Y                   Z               Mass
    ------------   -----------------  -----------------  -----------------  -----------------
         C           -0.614610333491     0.000000000000     0.000000000000    12.000000000000
         C            0.614309666509     0.000000000000     0.000000000000    12.000000000000
         H           -1.687440004874     0.000000000000     0.000000000000     1.007825032230
         H            1.691019995126     0.000000000000     0.000000000000     1.007825032230

  Basis Set: 6-31++G**
    Blend: 6-31++G**
  Basis Set: (6-31++G** AUX)
    Blend: AUG-CC-PVDZ-JKFIT

  -Total Gradient:
     Atom            X                  Y                   Z
    ------   -----------------  -----------------  -----------------
       1       -0.045120138741     0.000000000000     0.000000000000
       2        0.042182417164     0.000000000000     0.000000000000
       3       -0.003987368402     0.000000000000     0.000000000000
       4        0.006924666964     0.000000000000     0.000000000000

  Vibration                       4                   5                   6
  Freq [cm^-1]                 258.8329            258.8358            695.0527
  Irrep                          B1g                 B2g                 B1g
  Reduced mass [u]              2.0768              2.0768              1.6833
  Force const [mDyne/A]         0.0820              0.0820              0.4791

  Vibration                       7                   8                   9
  Freq [cm^-1]                 695.0548            814.5855            814.5870
  Irrep                          B2g                 B2u                 B1u
  Reduced mass [u]              1.6834              1.0848              1.0848
  Force const [mDyne/A]         0.4791              0.4241              0.4241

  Vibration                       10                  11                  12
  Freq [cm^-1]                1973.1204           3374.0213           3464.7300
  Irrep                           Ag                 B3u                  Ag
  Reduced mass [u]              3.9947              1.0848              1.2118
  Force const [mDyne/A]         9.1631              7.2762              8.5706

  ==> Thermochemistry Components <==

  Entropy, S
    Electronic S            0.000 [cal/(mol K)]        0.000 [J/(mol K)]       0.00000000 [mEh/K] (multiplicity = 1)
    Translational S        35.704 [cal/(mol K)]      149.387 [J/(mol K)]       0.05689862 [mEh/K] (mol. weight = 26.0157 [u], P = 101325.00 [Pa])
    Rotational S           10.952 [cal/(mol K)]       45.824 [J/(mol K)]       0.01745345 [mEh/K] (symmetry no. = 2)
    Vibrational S           4.356 [cal/(mol K)]       18.227 [J/(mol K)]       0.00694219 [mEh/K]
  Total S                  51.013 [cal/(mol K)]      213.438 [J/(mol K)]       0.08129426 [mEh/K]
  Correction S              0.000 [cal/(mol K)]        0.000 [J/(mol K)]       0.00000000 [mEh/K]

  Constant volume heat capacity, Cv
    Electronic Cv           0.000 [cal/(mol K)]        0.000 [J/(mol K)]       0.00000000 [mEh/K]
    Translational Cv        2.981 [cal/(mol K)]       12.472 [J/(mol K)]       0.00475022 [mEh/K]
    Rotational Cv           1.987 [cal/(mol K)]        8.314 [J/(mol K)]       0.00316681 [mEh/K]
    Vibrational Cv          6.440 [cal/(mol K)]       26.946 [J/(mol K)]       0.01026334 [mEh/K]
  Total Cv                 11.408 [cal/(mol K)]       47.733 [J/(mol K)]       0.01818037 [mEh/K]
  Correction Cv             0.000 [cal/(mol K)]        0.000 [J/(mol K)]       0.00000000 [mEh/K]

  Constant pressure heat capacity, Cp
    Electronic Cp           0.000 [cal/(mol K)]        0.000 [J/(mol K)]       0.00000000 [mEh/K]
    Translational Cp        4.968 [cal/(mol K)]       20.786 [J/(mol K)]       0.00791703 [mEh/K]
    Rotational Cp           1.987 [cal/(mol K)]        8.314 [J/(mol K)]       0.00316681 [mEh/K]
    Vibrational Cp          6.440 [cal/(mol K)]       26.946 [J/(mol K)]       0.01026334 [mEh/K]
  Total Cp                 13.396 [cal/(mol K)]       56.047 [J/(mol K)]       0.02134718 [mEh/K]
  Correction Cp             0.000 [cal/(mol K)]        0.000 [J/(mol K)]       0.00000000 [mEh/K]

  ==> Thermochemistry Energy Analysis <==

  Raw electronic energy, E0
  Total E0, Electronic energy at well bottom at 0 [K]                  -77.29564262 [Eh]

  Zero-point energy, ZPE_vib = Sum_i nu_i / 2
    Electronic ZPE          0.000 [kcal/mol]        0.000 [kJ/mol]       0.00000000 [Eh]
    Translational ZPE       0.000 [kcal/mol]        0.000 [kJ/mol]       0.00000000 [Eh]
    Rotational ZPE          0.000 [kcal/mol]        0.000 [kJ/mol]       0.00000000 [Eh]
    Vibrational ZPE        17.654 [kcal/mol]       73.862 [kJ/mol]       0.02813268 [Eh]        6174.410 [cm^-1]
  Correction ZPE           17.654 [kcal/mol]       73.862 [kJ/mol]       0.02813268 [Eh]        6174.410 [cm^-1]
  Total ZPE, Electronic energy at 0 [K]                                -77.26750994 [Eh]

  Thermal Energy, E (includes ZPE)
    Electronic E            0.000 [kcal/mol]        0.000 [kJ/mol]       0.00000000 [Eh]
    Translational E         0.889 [kcal/mol]        3.718 [kJ/mol]       0.00141628 [Eh]
    Rotational E            0.592 [kcal/mol]        2.479 [kJ/mol]       0.00094418 [Eh]
    Vibrational E          18.486 [kcal/mol]       77.346 [kJ/mol]       0.02945964 [Eh]
  Correction E             19.967 [kcal/mol]       83.544 [kJ/mol]       0.03182011 [Eh]
  Total E, Electronic energy at  298.15 [K]                            -77.26382252 [Eh]

  Enthalpy, H_trans = E_trans + k_B * T
    Electronic H            0.000 [kcal/mol]        0.000 [kJ/mol]       0.00000000 [Eh]
    Translational H         1.481 [kcal/mol]        6.197 [kJ/mol]       0.00236046 [Eh]
    Rotational H            0.592 [kcal/mol]        2.479 [kJ/mol]       0.00094418 [Eh]
    Vibrational H          18.486 [kcal/mol]       77.346 [kJ/mol]       0.02945964 [Eh]
  Correction H             20.560 [kcal/mol]       86.023 [kJ/mol]       0.03276429 [Eh]
  Total H, Enthalpy at  298.15 [K]                                     -77.26287833 [Eh]

  Gibbs free energy, G = H - T * S
    Electronic G            0.000 [kcal/mol]        0.000 [kJ/mol]       0.00000000 [Eh]
    Translational G        -9.164 [kcal/mol]      -38.342 [kJ/mol]      -0.01460386 [Eh]
    Rotational G           -2.673 [kcal/mol]      -11.183 [kJ/mol]      -0.00425956 [Eh]
    Vibrational G          17.187 [kcal/mol]       71.912 [kJ/mol]       0.02738983 [Eh]
  Correction G              5.350 [kcal/mol]       22.386 [kJ/mol]       0.00852641 [Eh]
  Total G, Free enthalpy at  298.15 [K]                                -77.28711621 [Eh]

*** Psi4 exiting successfully. Buy a developer a beer!
