                               Psi4 1.3.2 release

  ==> Input File <==

--------------------------------------------------------------------------
set basis  6-31G
molecule {
0 1
   O        0.00000        0.00000       -0.06797
   H        0.74903        0.00000        0.53936
   H       -0.74903        0.00000        0.53936
}
energy('MP2')
frequencies('MP2')

--------------------------------------------------------------------------

    Molecular point group: c2v
  Charge       = 0
  Multiplicity = 1
  Basis Set: 6-31G
    Blend: 6-31G
  Basis Set: (6-31G AUX)
    Blend: CC-PVDZ-JKFIT
  @DF-RHF Final Energy:   -75.98265212528469
    Total Energy =                        -75.9826521252846874
  Basis Set: (6-31G AUX)
    Blend: CC-PVDZ-RI
	 Reference Energy          =     -75.9826521252846874 [Eh]
	 Singles Energy            =      -0.0000000000000000 [Eh]
	 Same-Spin Energy          =      -0.0302906685437124 [Eh]
	 Opposite-Spin Energy      =      -0.0993294473514507 [Eh]
	 Correlation Energy        =      -0.1296201158951630 [Eh]
	 Total Energy              =     -76.1122722411798520 [Eh]
	 SCS Total Energy          =     -76.1119443516210055 [Eh]
    Molecular point group: c2v
  Basis Set: 6-31G
    Blend: 6-31G
  Basis Set: (6-31G AUX)
    Blend: CC-PVDZ-JKFIT
  @DF-RHF Final Energy:   -75.98265212528472
    Total Energy =                        -75.9826521252847158
  Basis Set: (6-31G AUX)
  @DF-RHF Final Energy:   -75.98265212528472
    Total Energy =                        -75.9826521252847158
  @DF-RHF Final Energy:   -75.98251299794678
    Total Energy =                        -75.9825129979467704
  @DF-RHF Final Energy:   -75.98278472584703
    Total Energy =                        -75.9827847258470115
  @DF-RHF Final Energy:   -75.98262131202070
    Total Energy =                        -75.9826213120207115
  @DF-RHF Final Energy:   -75.98267233048662
    Total Energy =                        -75.9826723304866221
    Molecular point group: cs
  Charge       = 0
  Multiplicity = 1
  Basis Set: 6-31G
    Blend: 6-31G
  Basis Set: (6-31G AUX)
    Blend: CC-PVDZ-JKFIT

    Orbital Energies [Eh]
    ---------------------

    Doubly Occupied:

       1Ap   -20.563711     2Ap    -1.355551     3Ap    -0.701680
       4Ap    -0.564604     1App   -0.502273

  @DF-RHF Final Energy:   -75.98264492975561

   => Energetics <=

    Nuclear Repulsion Energy =              9.1334682877742281
    One-Electron Energy =                -122.8565883762889399
    Two-Electron Energy =                  37.7404751587591107
    Total Energy =                        -75.9826449297556081

  Dipole Moment: [D]
     X:     0.0017      Y:     0.0000      Z:     2.6761     Total:     2.6761

  Basis Set: (6-31G AUX)
    Blend: CC-PVDZ-RI
    Molecular point group: cs

    Geometry (in Angstrom), charge = 0, multiplicity = 1:

       Center              X                  Y                   Z               Mass
    ------------   -----------------  -----------------  -----------------  -----------------
         O           -0.000175859669     0.000000000000    -0.067969259994    15.994914619570
         H            0.750425510279     0.000000000000     0.540492250436     1.007825032230
         H           -0.747634489721     0.000000000000     0.538229229576     1.007825032230

  Basis Set: 6-31G
    Blend: 6-31G
  Basis Set: (6-31G AUX)
    Blend: CC-PVDZ-JKFIT
  Basis Set: (6-31G AUX)
    Blend: CC-PVDZ-JKFIT
	 Reference Energy          =     -75.9826449297556081 [Eh]
	 Singles Energy            =      -0.0000000000000000 [Eh]
	 Same-Spin Energy          =      -0.0302905918234515 [Eh]
	 Opposite-Spin Energy      =      -0.0993293695428291 [Eh]
	 Correlation Energy        =      -0.1296199613662806 [Eh]
	 Total Energy              =     -76.1122648911218818 [Eh]

	 ================> DF-SCS-MP2 Energies <==================
	-----------------------------------------------------------
	 SCS Same-Spin Scale       =       0.3333333333333333 [-]
	 SCS Opposite-Spin Scale   =       1.2000000000000000 [-]
	 SCS Same-Spin Energy      =      -0.0100968639411505 [Eh]
	 SCS Opposite-Spin Energy  =      -0.1191952434513949 [Eh]
	 SCS Correlation Energy    =      -0.1292921073925454 [Eh]
	 SCS Total Energy          =     -76.1119370371481523 [Eh]
	-----------------------------------------------------------

  -Total Gradient:
     Atom            X                  Y                   Z
    ------   -----------------  -----------------  -----------------
       1       -0.003156254152     0.000000000000    -0.001643639802
       2       -0.019589876443     0.000000000000     0.002067699157
       3        0.022746130596     0.000000000000    -0.000424059355

  Vibration                       7                   8                   9
  Freq [cm^-1]                1681.8447           3827.5027           3941.8329
  Irrep                           A1                  A1                  B1
  Reduced mass [u]              1.0878              1.0404              1.0793
  Force const [mDyne/A]         1.8129              8.9802              9.8806

  ==> Thermochemistry Components <==

  Entropy, S
    Electronic S            0.000 [cal/(mol K)]        0.000 [J/(mol K)]       0.00000000 [mEh/K] (multiplicity = 1)
    Translational S        34.608 [cal/(mol K)]      144.801 [J/(mol K)]       0.05515177 [mEh/K] (mol. weight = 18.0106 [u], P = 101325.00 [Pa])
    Rotational S           10.508 [cal/(mol K)]       43.968 [J/(mol K)]       0.01674635 [mEh/K] (symmetry no. = 2)
    Vibrational S           0.005 [cal/(mol K)]        0.023 [J/(mol K)]       0.00000863 [mEh/K]
  Total S                  45.122 [cal/(mol K)]      188.791 [J/(mol K)]       0.07190675 [mEh/K]
  Correction S              0.000 [cal/(mol K)]        0.000 [J/(mol K)]       0.00000000 [mEh/K]

  Constant volume heat capacity, Cv
    Electronic Cv           0.000 [cal/(mol K)]        0.000 [J/(mol K)]       0.00000000 [mEh/K]
    Translational Cv        2.981 [cal/(mol K)]       12.472 [J/(mol K)]       0.00475022 [mEh/K]
    Rotational Cv           2.981 [cal/(mol K)]       12.472 [J/(mol K)]       0.00475022 [mEh/K]
    Vibrational Cv          0.039 [cal/(mol K)]        0.164 [J/(mol K)]       0.00006236 [mEh/K]
  Total Cv                  6.001 [cal/(mol K)]       25.107 [J/(mol K)]       0.00956280 [mEh/K]
  Correction Cv             0.000 [cal/(mol K)]        0.000 [J/(mol K)]       0.00000000 [mEh/K]

  Constant pressure heat capacity, Cp
    Electronic Cp           0.000 [cal/(mol K)]        0.000 [J/(mol K)]       0.00000000 [mEh/K]
    Translational Cp        4.968 [cal/(mol K)]       20.786 [J/(mol K)]       0.00791703 [mEh/K]
    Rotational Cp           2.981 [cal/(mol K)]       12.472 [J/(mol K)]       0.00475022 [mEh/K]
    Vibrational Cp          0.039 [cal/(mol K)]        0.164 [J/(mol K)]       0.00006236 [mEh/K]
  Total Cp                  7.988 [cal/(mol K)]       33.422 [J/(mol K)]       0.01272961 [mEh/K]
  Correction Cp             0.000 [cal/(mol K)]        0.000 [J/(mol K)]       0.00000000 [mEh/K]

  ==> Thermochemistry Energy Analysis <==

  Raw electronic energy, E0
  Total E0, Electronic energy at well bottom at 0 [K]                  -76.11227224 [Eh]

  Zero-point energy, ZPE_vib = Sum_i nu_i / 2
    Electronic ZPE          0.000 [kcal/mol]        0.000 [kJ/mol]       0.00000000 [Eh]
    Translational ZPE       0.000 [kcal/mol]        0.000 [kJ/mol]       0.00000000 [Eh]
    Rotational ZPE          0.000 [kcal/mol]        0.000 [kJ/mol]       0.00000000 [Eh]
    Vibrational ZPE        13.511 [kcal/mol]       56.531 [kJ/mol]       0.02153137 [Eh]        4725.590 [cm^-1]
  Correction ZPE           13.511 [kcal/mol]       56.531 [kJ/mol]       0.02153137 [Eh]        4725.590 [cm^-1]
  Total ZPE, Electronic energy at 0 [K]                                -76.09074087 [Eh]

  Thermal Energy, E (includes ZPE)
    Electronic E            0.000 [kcal/mol]        0.000 [kJ/mol]       0.00000000 [Eh]
    Translational E         0.889 [kcal/mol]        3.718 [kJ/mol]       0.00141628 [Eh]
    Rotational E            0.889 [kcal/mol]        3.718 [kJ/mol]       0.00141628 [Eh]
    Vibrational E          13.513 [kcal/mol]       56.537 [kJ/mol]       0.02153366 [Eh]
  Correction E             15.290 [kcal/mol]       63.973 [kJ/mol]       0.02436622 [Eh]
  Total E, Electronic energy at  298.15 [K]                            -76.08790602 [Eh]

  Enthalpy, H_trans = E_trans + k_B * T
    Electronic H            0.000 [kcal/mol]        0.000 [kJ/mol]       0.00000000 [Eh]
    Translational H         1.481 [kcal/mol]        6.197 [kJ/mol]       0.00236046 [Eh]
    Rotational H            0.889 [kcal/mol]        3.718 [kJ/mol]       0.00141628 [Eh]
    Vibrational H          13.513 [kcal/mol]       56.537 [kJ/mol]       0.02153366 [Eh]
  Correction H             15.883 [kcal/mol]       66.452 [kJ/mol]       0.02531040 [Eh]
  Total H, Enthalpy at  298.15 [K]                                     -76.08696184 [Eh]

  Gibbs free energy, G = H - T * S
    Electronic G            0.000 [kcal/mol]        0.000 [kJ/mol]       0.00000000 [Eh]
    Translational G        -8.837 [kcal/mol]      -36.975 [kJ/mol]      -0.01408304 [Eh]
    Rotational G           -2.244 [kcal/mol]       -9.390 [kJ/mol]      -0.00357665 [Eh]
    Vibrational G          13.511 [kcal/mol]       56.530 [kJ/mol]       0.02153109 [Eh]
  Correction G              2.429 [kcal/mol]       10.164 [kJ/mol]       0.00387140 [Eh]
  Total G, Free enthalpy at  298.15 [K]                                -76.10840084 [Eh]

*** Psi4 exiting successfully. Buy a developer a beer!
