                               Psi4 1.3.2 release

  ==> Input File <==

--------------------------------------------------------------------------
set basis  6-31+G*
molecule {
0 1
   O        0.00000        0.00000        0.49152
   C        0.00000        0.00000       -0.65516
}
energy('CCSD')
frequencies('CCSD')
--------------------------------------------------------------------------

    Molecular point group: c2v
  Charge       = 0
  Multiplicity = 1
  Basis Set: 6-31+G*
    Blend: 6-31+G*
  @RHF Final Energy:  -112.73929665524376
    Total Energy =                       -112.7392966552437628
      * MP2 total energy                      = -113.036517708536962
      * CCSD total energy                     = -113.041429692621307
    Molecular point group: c2v
  Basis Set: 6-31+G*
    Blend: 6-31+G*
  @RHF Final Energy:  -112.73929665524386
    Total Energy =                       -112.7392966552438622
      * MP2 total energy                      = -113.036517708923071
      * CCSD total energy                     = -113.041429696501510
  Basis Set: 6-31+G*
    Blend: 6-31+G*
  @RHF Final Energy:  -112.73929665524386
    Total Energy =                       -112.7392966552438622
      * MP2 total energy                      = -113.036517708923071
      * CCSD total energy                     = -113.041429696683167
  Basis Set: 6-31+G*
    Blend: 6-31+G*
  @RHF Final Energy:  -112.73945991219037
    Total Energy =                       -112.7394599121903696
      * MP2 total energy                      = -113.036499896798617
      * CCSD total energy                     = -113.041453156236713
    Molecular point group: c2v
  Charge       = 0
  Multiplicity = 1
  Basis Set: 6-31+G*
    Blend: 6-31+G*

    Orbital Energies [Eh]
    ---------------------

    Doubly Occupied:

       1A1   -20.686350     2A1   -11.380549     3A1    -1.515528
       4A1    -0.803050     1B2    -0.633179     1B1    -0.633179
       5A1    -0.557620

  @RHF Final Energy:  -112.73912895237484

   => Energetics <=

    Nuclear Repulsion Energy =             22.1318434565547548
    One-Electron Energy =                -197.3230373813948688
    Two-Electron Energy =                  62.4520649724652799
    Total Energy =                       -112.7391289523748412

  Dipole Moment: [D]
     X:     0.0000      Y:     0.0000      Z:    -0.4244     Total:     0.4244

      * MP2 total energy                      = -113.036531183402303
      * CCSD total energy                     = -113.041401781547876
    Molecular point group: c2v

    Geometry (in Bohr), charge = 0, multiplicity = 1:

       Center              X                  Y                   Z
    ------------   -----------------  -----------------  -----------------
         O            0.000000000000     0.000000000000     0.929663427648
         C            0.000000000000     0.000000000000    -1.239157262514

  -Total gradient:
     Atom            X                  Y                   Z
    ------   -----------------  -----------------  -----------------
       1        0.000000000000     0.000000000000     0.015779973728
       2        0.000000000000     0.000000000000    -0.015779973729

  Vibration                       6
  Freq [cm^-1]                2170.1381
  Irrep                           A1
  Reduced mass [u]             13.4388
  Force const [mDyne/A]        37.2893

  ==> Thermochemistry Components <==

  Entropy, S
    Electronic S            0.000 [cal/(mol K)]        0.000 [J/(mol K)]       0.00000000 [mEh/K] (multiplicity = 1)
    Translational S        35.923 [cal/(mol K)]      150.302 [J/(mol K)]       0.05724692 [mEh/K] (mol. weight = 27.9949 [u], P = 101325.00 [Pa])
    Rotational S           11.343 [cal/(mol K)]       47.458 [J/(mol K)]       0.01807582 [mEh/K] (symmetry no. = 1)
    Vibrational S           0.001 [cal/(mol K)]        0.003 [J/(mol K)]       0.00000103 [mEh/K]
  Total S                  47.266 [cal/(mol K)]      197.763 [J/(mol K)]       0.07532378 [mEh/K]
  Correction S              0.000 [cal/(mol K)]        0.000 [J/(mol K)]       0.00000000 [mEh/K]

  Constant volume heat capacity, Cv
    Electronic Cv           0.000 [cal/(mol K)]        0.000 [J/(mol K)]       0.00000000 [mEh/K]
    Translational Cv        2.981 [cal/(mol K)]       12.472 [J/(mol K)]       0.00475022 [mEh/K]
    Rotational Cv           1.987 [cal/(mol K)]        8.314 [J/(mol K)]       0.00316681 [mEh/K]
    Vibrational Cv          0.006 [cal/(mol K)]        0.026 [J/(mol K)]       0.00000983 [mEh/K]
  Total Cv                  4.974 [cal/(mol K)]       20.812 [J/(mol K)]       0.00792686 [mEh/K]
  Correction Cv             0.000 [cal/(mol K)]        0.000 [J/(mol K)]       0.00000000 [mEh/K]

  Constant pressure heat capacity, Cp
    Electronic Cp           0.000 [cal/(mol K)]        0.000 [J/(mol K)]       0.00000000 [mEh/K]
    Translational Cp        4.968 [cal/(mol K)]       20.786 [J/(mol K)]       0.00791703 [mEh/K]
    Rotational Cp           1.987 [cal/(mol K)]        8.314 [J/(mol K)]       0.00316681 [mEh/K]
    Vibrational Cp          0.006 [cal/(mol K)]        0.026 [J/(mol K)]       0.00000983 [mEh/K]
  Total Cp                  6.961 [cal/(mol K)]       29.126 [J/(mol K)]       0.01109367 [mEh/K]
  Correction Cp             0.000 [cal/(mol K)]        0.000 [J/(mol K)]       0.00000000 [mEh/K]

  ==> Thermochemistry Energy Analysis <==

  Raw electronic energy, E0
  Total E0, Electronic energy at well bottom at 0 [K]                 -113.04142970 [Eh]

  Zero-point energy, ZPE_vib = Sum_i nu_i / 2
    Electronic ZPE          0.000 [kcal/mol]        0.000 [kJ/mol]       0.00000000 [Eh]
    Translational ZPE       0.000 [kcal/mol]        0.000 [kJ/mol]       0.00000000 [Eh]
    Rotational ZPE          0.000 [kcal/mol]        0.000 [kJ/mol]       0.00000000 [Eh]
    Vibrational ZPE         3.102 [kcal/mol]       12.980 [kJ/mol]       0.00494394 [Eh]        1085.069 [cm^-1]
  Correction ZPE            3.102 [kcal/mol]       12.980 [kJ/mol]       0.00494394 [Eh]        1085.069 [cm^-1]
  Total ZPE, Electronic energy at 0 [K]                               -113.03648576 [Eh]

  Thermal Energy, E (includes ZPE)
    Electronic E            0.000 [kcal/mol]        0.000 [kJ/mol]       0.00000000 [Eh]
    Translational E         0.889 [kcal/mol]        3.718 [kJ/mol]       0.00141628 [Eh]
    Rotational E            0.592 [kcal/mol]        2.479 [kJ/mol]       0.00094418 [Eh]
    Vibrational E           3.103 [kcal/mol]       12.981 [kJ/mol]       0.00494422 [Eh]
  Correction E              4.584 [kcal/mol]       19.178 [kJ/mol]       0.00730468 [Eh]
  Total E, Electronic energy at  298.15 [K]                           -113.03412502 [Eh]

  Enthalpy, H_trans = E_trans + k_B * T
    Electronic H            0.000 [kcal/mol]        0.000 [kJ/mol]       0.00000000 [Eh]
    Translational H         1.481 [kcal/mol]        6.197 [kJ/mol]       0.00236046 [Eh]
    Rotational H            0.592 [kcal/mol]        2.479 [kJ/mol]       0.00094418 [Eh]
    Vibrational H           3.103 [kcal/mol]       12.981 [kJ/mol]       0.00494422 [Eh]
  Correction H              5.176 [kcal/mol]       21.657 [kJ/mol]       0.00824886 [Eh]
  Total H, Enthalpy at  298.15 [K]                                    -113.03318083 [Eh]

  Gibbs free energy, G = H - T * S
    Electronic G            0.000 [kcal/mol]        0.000 [kJ/mol]       0.00000000 [Eh]
    Translational G        -9.229 [kcal/mol]      -38.615 [kJ/mol]      -0.01470771 [Eh]
    Rotational G           -2.789 [kcal/mol]      -11.671 [kJ/mol]      -0.00444512 [Eh]
    Vibrational G           3.102 [kcal/mol]       12.980 [kJ/mol]       0.00494391 [Eh]
  Correction G             -8.916 [kcal/mol]      -37.306 [kJ/mol]      -0.01420892 [Eh]
  Total G, Free enthalpy at  298.15 [K]                               -113.05563862 [Eh]

*** Psi4 exiting successfully. Buy a developer a beer!
