                               Psi4 1.3.2 release

  ==> Input File <==

--------------------------------------------------------------------------
set basis  cc-pVTZ
molecule {
0 1
   C       -1.22151       -0.69325        0.00000
   C       -1.21114        0.71122        0.00000
   C       -0.01037       -1.40452        0.00000
   C        0.01037        1.40452        0.00000
   C        1.21114       -0.71122        0.00000
   C        1.22151        0.69325        0.00000
   H       -2.17311       -1.23332        0.00000
   H       -2.15464        1.26533        0.00000
   H       -0.01848       -2.49865        0.00000
   H        0.01848        2.49865        0.00000
   H        2.15464       -1.26533        0.00000
   H        2.17311        1.23332        0.00000
}
energy('m06-2x')
frequencies('m06-2x')
--------------------------------------------------------------------------

    Molecular point group: c2h
  Charge       = 0
  Multiplicity = 1
  Basis Set: CC-PVTZ
    Blend: CC-PVTZ
  Basis Set: (CC-PVTZ AUX)
    Blend: CC-PVTZ-JKFIT
  @DF-RKS Final Energy:  -232.22032132425437
    Total Energy =                       -232.2203213242543995
    Molecular point group: c2h
  Basis Set: CC-PVTZ
    Blend: CC-PVTZ
  Basis Set: (CC-PVTZ AUX)
    Blend: CC-PVTZ-JKFIT
  @DF-RKS Final Energy:  -232.22032133306723
    Total Energy =                       -232.2203213330672611
  Basis Set: CC-PVTZ
    Blend: CC-PVTZ
  Basis Set: (CC-PVTZ AUX)
    Blend: CC-PVTZ-JKFIT
  Basis Set: CC-PVTZ
    Blend: CC-PVTZ
  Basis Set: (CC-PVTZ AUX)
    Blend: CC-PVTZ-JKFIT
  @DF-RKS Final Energy:  -232.22032133278609
    Total Energy =                       -232.2203213327860851
  Basis Set: CC-PVTZ
  @DF-RKS Final Energy:  -232.22044401128068
    Total Energy =                       -232.2204440112806765
  @DF-RKS Final Energy:  -232.22047410273947
    Total Energy =                       -232.2204741027394732
  @DF-RKS Final Energy:  -232.22041549824263
    Total Energy =                       -232.2204154982426303
  @DF-RKS Final Energy:  -232.22040263096926
    Total Energy =                       -232.2204026309692608
  @DF-RKS Final Energy:  -232.22043001913076
    Total Energy =                       -232.2204300191307595
  @DF-RKS Final Energy:  -232.22044384894784
    Total Energy =                       -232.2204438489478662
  @DF-RKS Final Energy:  -232.22041049391791
    Total Energy =                       -232.2204104939179388
  @DF-RKS Final Energy:  -232.22041465860192
    Total Energy =                       -232.2204146586018965
  @DF-RKS Final Energy:  -232.22038279621626
    Total Energy =                       -232.2203827962162563
  @DF-RKS Final Energy:  -232.22042535313415
    Total Energy =                       -232.2204253531341465
  @DF-RKS Final Energy:  -232.22035801689799
    Total Energy =                       -232.2203580168979897
  @DF-RKS Final Energy:  -232.22038560414290
    Total Energy =                       -232.2203856041429049
  @DF-RKS Final Energy:  -232.22039928929075
    Total Energy =                       -232.2203992892907536
  @DF-RKS Final Energy:  -232.22051338310274
    Total Energy =                       -232.2205133831027695
  @DF-RKS Final Energy:  -232.22038232480057
    Total Energy =                       -232.2203823248005676
  @DF-RKS Final Energy:  -232.22043983713095
    Total Energy =                       -232.2204398371309537
  @DF-RKS Final Energy:  -232.22038281805956
    Total Energy =                       -232.2203828180595622
  @DF-RKS Final Energy:  -232.22042923714179
    Total Energy =                       -232.2204292371417864
  @DF-RKS Final Energy:  -232.22032099873613
    Total Energy =                       -232.2203209987360992
  @DF-RKS Final Energy:  -232.22032091315182
    Total Energy =                       -232.2203209131517951
  @DF-RKS Final Energy:  -232.22032095112971
    Total Energy =                       -232.2203209511296791
  @DF-RKS Final Energy:  -232.22032084926872
    Total Energy =                       -232.2203208492686883
  @DF-RKS Final Energy:  -232.22032112043536
    Total Energy =                       -232.2203211204353579
  @DF-RKS Final Energy:  -232.22032111672178
    Total Energy =                       -232.2203211167217489
  @DF-RKS Final Energy:  -232.22032106485810
    Total Energy =                       -232.2203210648581262
  @DF-RKS Final Energy:  -232.22032093506920
    Total Energy =                       -232.2203209350692248
  @DF-RKS Final Energy:  -232.22032093181849
    Total Energy =                       -232.2203209318184918
  @DF-RKS Final Energy:  -232.22032019856519
    Total Energy =                       -232.2203201985652186
  @DF-RKS Final Energy:  -232.22032062091466
    Total Energy =                       -232.2203206209146913
  @DF-RKS Final Energy:  -232.22032002483346
    Total Energy =                       -232.2203200248334269
  @DF-RKS Final Energy:  -232.22032058231218
    Total Energy =                       -232.2203205823122119
  @DF-RKS Final Energy:  -232.22031886998136
    Total Energy =                       -232.2203188699813268
  @DF-RKS Final Energy:  -232.22031895779980
    Total Energy =                       -232.2203189577998046
  @DF-RKS Final Energy:  -232.22031818260359
    Total Energy =                       -232.2203181826035632
  @DF-RKS Final Energy:  -232.22031962672361
    Total Energy =                       -232.2203196267236081
  Basis Set: (CC-PVTZ AUX)
    Blend: CC-PVTZ-JKFIT
  Basis Set: CC-PVTZ
    Blend: CC-PVTZ
  Basis Set: (CC-PVTZ AUX)
    Blend: CC-PVTZ-JKFIT
  @DF-RKS Final Energy:  -232.22031907841560
    Total Energy =                       -232.2203190784155993
  Basis Set: CC-PVTZ
    Blend: CC-PVTZ
  Basis Set: (CC-PVTZ AUX)
    Blend: CC-PVTZ-JKFIT
    Molecular point group: cs
  Charge       = 0
  Multiplicity = 1
  Basis Set: CC-PVTZ
    Blend: CC-PVTZ
  Basis Set: (CC-PVTZ AUX)
    Blend: CC-PVTZ-JKFIT

    Orbital Energies [Eh]
    ---------------------

    Doubly Occupied:

       1Ap   -10.549052     2Ap   -10.548714     3Ap   -10.548686
       4Ap   -10.547943     5Ap   -10.547924     6Ap   -10.547569
       7Ap    -0.953902     8Ap    -0.839614     9Ap    -0.839605
      10Ap    -0.683507    11Ap    -0.683493    12Ap    -0.595752
      13Ap    -0.533470    14Ap    -0.509612    15Ap    -0.485971
      16Ap    -0.485956     1App   -0.436153    17Ap    -0.402141
      18Ap    -0.402131     2App   -0.307151     3App   -0.307143

  @DF-RKS Final Energy:  -232.22031872986261

   => Energetics <=

    Nuclear Repulsion Energy =            202.0133184684007119
    One-Electron Energy =                -711.1916163739758758
    Two-Electron Energy =                 293.6797170449994496
    DFT Exchange-Correlation Energy =     -16.7217378692869048
    Empirical Dispersion Energy =           0.0000000000000000
    VV10 Nonlocal Energy =                  0.0000000000000000
    Total Energy =                       -232.2203187298626119

  Dipole Moment: [D]
     X:    -0.0008      Y:    -0.0014      Z:     0.0000     Total:     0.0016

    Molecular point group: cs

    Geometry (in Angstrom), charge = 0, multiplicity = 1:

       Center              X                  Y                   Z               Mass
    ------------   -----------------  -----------------  -----------------  -----------------
         C           -1.221510000000    -0.693250000000     0.000000000000    12.000000000000
         C           -1.211140000000     0.711220000000     0.000000000000    12.000000000000
         C           -0.010370000000    -1.404520000000     0.000000000000    12.000000000000
         C            0.010370000000     1.404520000000     0.000000000000    12.000000000000
         C            1.211140000000    -0.711220000000     0.000000000000    12.000000000000
         C            1.221510000000     0.693250000000     0.000000000000    12.000000000000
         H           -2.173110000000    -1.233320000000     0.000000000000     1.007825032230
         H           -2.154640000000     1.264012202829     0.000000000000     1.007825032230
         H           -0.018480000000    -2.497332202829     0.000000000000     1.007825032230
         H            0.018480000000     2.499967797171     0.000000000000     1.007825032230
         H            2.154640000000    -1.266647797171     0.000000000000     1.007825032230
         H            2.173110000000     1.233320000000     0.000000000000     1.007825032230

  Basis Set: CC-PVTZ
    Blend: CC-PVTZ
  Basis Set: (CC-PVTZ AUX)
    Blend: CC-PVTZ-JKFIT

  -Total Gradient:
     Atom            X                  Y                   Z
    ------   -----------------  -----------------  -----------------
       1       -0.006355152724    -0.003542719918     0.000000000000
       2       -0.006485031526     0.003956980626     0.000000000000
       3       -0.000005549350    -0.008063987874     0.000000000000
       4        0.000071567931     0.006447591044     0.000000000000
       5        0.005958796461    -0.003365290137     0.000000000000
       6        0.006202991690     0.003543238366     0.000000000000
       7       -0.007504315822    -0.004295170868     0.000000000000
       8       -0.007129289283     0.004103060527     0.000000000000
       9       -0.000057323966    -0.007786491584     0.000000000000
      10        0.000057673553     0.009475220887     0.000000000000
      11        0.007734170630    -0.004757229735     0.000000000000
      12        0.007513174302     0.004288852846     0.000000000000

  Vibration                       7                   8                   9
  Freq [cm^-1]                 446.0099            447.0035            608.1968
  Irrep                           Au                  Au                  Ag
  Reduced mass [u]              2.9894              3.0076              6.1135
  Force const [mDyne/A]         0.3504              0.3541              1.3324

  Vibration                       10                  11                  12
  Freq [cm^-1]                 628.2039            743.0633            765.3474
  Irrep                           Ag                  Bg                  Au
  Reduced mass [u]              5.6967              3.5932              1.0849
  Force const [mDyne/A]         1.3246              1.1689              0.3744

  Vibration                       13                  14                  15
  Freq [cm^-1]                 927.0057            929.1022            982.6849
  Irrep                           Bg                  Bg                  Ag
  Reduced mass [u]              1.2479              1.2479              3.7874
  Force const [mDyne/A]         0.6318              0.6347              2.1549

  Vibration                       16                  17                  18
  Freq [cm^-1]                1014.9525           1042.5985           1044.2925
  Irrep                           Bu                  Au                  Au
  Reduced mass [u]              6.5108              1.3495              1.3457
  Force const [mDyne/A]         3.9516              0.8643              0.8646

  Vibration                       19                  20                  21
  Freq [cm^-1]                1055.8257           1056.2408           1072.4013
  Irrep                           Bu                  Bu                  Bg
  Reduced mass [u]              1.8108              1.8130              1.2542
  Force const [mDyne/A]         1.1893              1.1918              0.8498

  Vibration                       22                  23                  24
  Freq [cm^-1]                1089.2170           1141.3709           1232.9272
  Irrep                           Ag                  Bu                  Ag
  Reduced mass [u]              1.4014              1.7692              1.1626
  Force const [mDyne/A]         0.9796              1.3580              1.0413

  Vibration                       25                  26                  27
  Freq [cm^-1]                1273.6003           1368.2589           1508.7323
  Irrep                           Bu                  Ag                  Bu
  Reduced mass [u]              1.9594              1.2562              1.8793
  Force const [mDyne/A]         1.8726              1.3856              2.5204

  Vibration                       28                  29                  30
  Freq [cm^-1]                1508.8549           1605.7130           1637.6396
  Irrep                           Bu                  Ag                  Ag
  Reduced mass [u]              1.8763              4.8389              3.9723
  Force const [mDyne/A]         2.5168              7.3508              6.2766

  Vibration                       31                  32                  33
  Freq [cm^-1]                3085.7150           3094.9657           3095.2920
  Irrep                           Bu                  Ag                  Ag
  Reduced mass [u]              1.0846              1.0882              1.0883
  Force const [mDyne/A]         6.0847              6.1415              6.1433

  Vibration                       34                  35                  36
  Freq [cm^-1]                3110.0307           3110.2020           3119.8076
  Irrep                           Bu                  Bu                  Ag
  Reduced mass [u]              1.0954              1.0954              1.0988
  Force const [mDyne/A]         6.2423              6.2429              6.3010

  ==> Thermochemistry Components <==

  Entropy, S
    Electronic S            0.000 [cal/(mol K)]        0.000 [J/(mol K)]       0.00000000 [mEh/K] (multiplicity = 1)
    Translational S        38.979 [cal/(mol K)]      163.089 [J/(mol K)]       0.06211726 [mEh/K] (mol. weight = 78.0470 [u], P = 101325.00 [Pa])
    Rotational S           24.318 [cal/(mol K)]      101.746 [J/(mol K)]       0.03875307 [mEh/K] (symmetry no. = 2)
    Vibrational S           4.004 [cal/(mol K)]       16.753 [J/(mol K)]       0.00638106 [mEh/K]
  Total S                  67.301 [cal/(mol K)]      281.589 [J/(mol K)]       0.10725140 [mEh/K]
  Correction S              0.000 [cal/(mol K)]        0.000 [J/(mol K)]       0.00000000 [mEh/K]

  Constant volume heat capacity, Cv
    Electronic Cv           0.000 [cal/(mol K)]        0.000 [J/(mol K)]       0.00000000 [mEh/K]
    Translational Cv        2.981 [cal/(mol K)]       12.472 [J/(mol K)]       0.00475022 [mEh/K]
    Rotational Cv           2.981 [cal/(mol K)]       12.472 [J/(mol K)]       0.00475022 [mEh/K]
    Vibrational Cv         10.717 [cal/(mol K)]       44.841 [J/(mol K)]       0.01707899 [mEh/K]
  Total Cv                 16.679 [cal/(mol K)]       69.784 [J/(mol K)]       0.02657942 [mEh/K]
  Correction Cv             0.000 [cal/(mol K)]        0.000 [J/(mol K)]       0.00000000 [mEh/K]

  Constant pressure heat capacity, Cp
    Electronic Cp           0.000 [cal/(mol K)]        0.000 [J/(mol K)]       0.00000000 [mEh/K]
    Translational Cp        4.968 [cal/(mol K)]       20.786 [J/(mol K)]       0.00791703 [mEh/K]
    Rotational Cp           2.981 [cal/(mol K)]       12.472 [J/(mol K)]       0.00475022 [mEh/K]
    Vibrational Cp         10.717 [cal/(mol K)]       44.841 [J/(mol K)]       0.01707899 [mEh/K]
  Total Cp                 18.666 [cal/(mol K)]       78.099 [J/(mol K)]       0.02974623 [mEh/K]
  Correction Cp             0.000 [cal/(mol K)]        0.000 [J/(mol K)]       0.00000000 [mEh/K]

  ==> Thermochemistry Energy Analysis <==

  Raw electronic energy, E0
  Total E0, Electronic energy at well bottom at 0 [K]                 -232.22032133 [Eh]

  Zero-point energy, ZPE_vib = Sum_i nu_i / 2
    Electronic ZPE          0.000 [kcal/mol]        0.000 [kJ/mol]       0.00000000 [Eh]
    Translational ZPE       0.000 [kcal/mol]        0.000 [kJ/mol]       0.00000000 [Eh]
    Rotational ZPE          0.000 [kcal/mol]        0.000 [kJ/mol]       0.00000000 [Eh]
    Vibrational ZPE        62.537 [kcal/mol]      261.655 [kJ/mol]       0.09965903 [Eh]       21872.628 [cm^-1]
  Correction ZPE           62.537 [kcal/mol]      261.655 [kJ/mol]       0.09965903 [Eh]       21872.628 [cm^-1]
  Total ZPE, Electronic energy at 0 [K]                               -232.12066231 [Eh]

  Thermal Energy, E (includes ZPE)
    Electronic E            0.000 [kcal/mol]        0.000 [kJ/mol]       0.00000000 [Eh]
    Translational E         0.889 [kcal/mol]        3.718 [kJ/mol]       0.00141628 [Eh]
    Rotational E            0.889 [kcal/mol]        3.718 [kJ/mol]       0.00141628 [Eh]
    Vibrational E          63.440 [kcal/mol]      265.431 [kJ/mol]       0.10109750 [Eh]
  Correction E             65.217 [kcal/mol]      272.868 [kJ/mol]       0.10393005 [Eh]
  Total E, Electronic energy at  298.15 [K]                           -232.11639128 [Eh]

  Enthalpy, H_trans = E_trans + k_B * T
    Electronic H            0.000 [kcal/mol]        0.000 [kJ/mol]       0.00000000 [Eh]
    Translational H         1.481 [kcal/mol]        6.197 [kJ/mol]       0.00236046 [Eh]
    Rotational H            0.889 [kcal/mol]        3.718 [kJ/mol]       0.00141628 [Eh]
    Vibrational H          63.440 [kcal/mol]      265.431 [kJ/mol]       0.10109750 [Eh]
  Correction H             65.810 [kcal/mol]      275.347 [kJ/mol]       0.10487424 [Eh]
  Total H, Enthalpy at  298.15 [K]                                    -232.11544710 [Eh]

  Gibbs free energy, G = H - T * S
    Electronic G            0.000 [kcal/mol]        0.000 [kJ/mol]       0.00000000 [Eh]
    Translational G       -10.140 [kcal/mol]      -42.428 [kJ/mol]      -0.01615980 [Eh]
    Rotational G           -6.362 [kcal/mol]      -26.617 [kJ/mol]      -0.01013795 [Eh]
    Vibrational G          62.246 [kcal/mol]      260.436 [kJ/mol]       0.09919498 [Eh]
  Correction G             45.744 [kcal/mol]      191.392 [kJ/mol]       0.07289723 [Eh]
  Total G, Free enthalpy at  298.15 [K]                               -232.14742410 [Eh]

*** Psi4 exiting successfully. Buy a developer a beer!
