                               Psi4 1.3.2 release

  ==> Input File <==

--------------------------------------------------------------------------
set basis  aug-cc-pVDZ
molecule {
0 1
   O        0.00000        0.00000        0.49152
   C        0.00000        0.00000       -0.65516
}
energy('MP2')
frequencies('MP2')
--------------------------------------------------------------------------

    Molecular point group: c2v
  Charge       = 0
  Multiplicity = 1
  Basis Set: AUG-CC-PVDZ
    Blend: AUG-CC-PVDZ
  Basis Set: (AUG-CC-PVDZ AUX)
    Blend: AUG-CC-PVDZ-JKFIT
  @DF-RHF Final Energy:  -112.75207941183754
    Total Energy =                       -112.7520794118375420
  Basis Set: (AUG-CC-PVDZ AUX)
    Blend: AUG-CC-PVDZ-RI
	 Reference Energy          =    -112.7520794118375420 [Eh]
	 Singles Energy            =      -0.0000000000000000 [Eh]
	 Same-Spin Energy          =      -0.0816139862252097 [Eh]
	 Opposite-Spin Energy      =      -0.2258114472986339 [Eh]
	 Correlation Energy        =      -0.3074254335238436 [Eh]
	 Total Energy              =    -113.0595048453613884 [Eh]
	 SCS Total Energy          =    -113.0502578106709706 [Eh]
    Molecular point group: c2v
  Basis Set: AUG-CC-PVDZ
    Blend: AUG-CC-PVDZ
  Basis Set: (AUG-CC-PVDZ AUX)
    Blend: AUG-CC-PVDZ-JKFIT
  @DF-RHF Final Energy:  -112.75207941183746
    Total Energy =                       -112.7520794118374567
  Basis Set: (AUG-CC-PVDZ AUX)
  @DF-RHF Final Energy:  -112.75207941183746
    Total Energy =                       -112.7520794118374567
  @DF-RHF Final Energy:  -112.75224905542895
    Total Energy =                       -112.7522490554289476
    Molecular point group: c2v
  Charge       = 0
  Multiplicity = 1
  Basis Set: AUG-CC-PVDZ
    Blend: AUG-CC-PVDZ
  Basis Set: (AUG-CC-PVDZ AUX)
    Blend: AUG-CC-PVDZ-JKFIT

    Orbital Energies [Eh]
    ---------------------

    Doubly Occupied:

       1A1   -20.679093     2A1   -11.382097     3A1    -1.516480
       4A1    -0.806638     1B2    -0.632654     1B1    -0.632654
       5A1    -0.556929

  @DF-RHF Final Energy:  -112.75190550516123

   => Energetics <=

    Nuclear Repulsion Energy =             22.1318434565547548
    One-Electron Energy =                -197.3544068797160662
    Two-Electron Energy =                  62.4706579180000929
    Total Energy =                       -112.7519055051612327

  Dipole Moment: [D]
     X:     0.0000      Y:     0.0000      Z:    -0.3566     Total:     0.3566

  Basis Set: (AUG-CC-PVDZ AUX)
    Blend: AUG-CC-PVDZ-RI
    Molecular point group: c2v

    Geometry (in Angstrom), charge = 0, multiplicity = 1:

       Center              X                  Y                   Z               Mass
    ------------   -----------------  -----------------  -----------------  -----------------
         O            0.000000000000     0.000000000000     0.491956699505    15.994914619570
         C            0.000000000000     0.000000000000    -0.655733783759    12.000000000000

  Basis Set: AUG-CC-PVDZ
    Blend: AUG-CC-PVDZ
  Basis Set: (AUG-CC-PVDZ AUX)
    Blend: AUG-CC-PVDZ-JKFIT
  Basis Set: (AUG-CC-PVDZ AUX)
    Blend: AUG-CC-PVDZ-JKFIT
	 Reference Energy          =    -112.7519055051612327 [Eh]
	 Singles Energy            =      -0.0000000000000000 [Eh]
	 Same-Spin Energy          =      -0.0816695371764893 [Eh]
	 Opposite-Spin Energy      =      -0.2259390307560686 [Eh]
	 Correlation Energy        =      -0.3076085679325578 [Eh]
	 Total Energy              =    -113.0595140730937942 [Eh]

	 ================> DF-SCS-MP2 Energies <==================
	-----------------------------------------------------------
	 SCS Same-Spin Scale       =       0.3333333333333333 [-]
	 SCS Opposite-Spin Scale   =       1.2000000000000000 [-]
	 SCS Same-Spin Energy      =      -0.0272231790588298 [Eh]
	 SCS Opposite-Spin Energy  =      -0.2711268369072822 [Eh]
	 SCS Correlation Energy    =      -0.2983500159661120 [Eh]
	 SCS Total Energy          =    -113.0502555211273403 [Eh]
	-----------------------------------------------------------

  -Total Gradient:
     Atom            X                  Y                   Z
    ------   -----------------  -----------------  -----------------
       1        0.000000000000    -0.000000000000    -0.003749047394
       2        0.000000000000     0.000000000000     0.003749047394

  Vibration                       6
  Freq [cm^-1]                2096.1856
  Irrep                           A1
  Reduced mass [u]             13.4388
  Force const [mDyne/A]        34.7911

  ==> Thermochemistry Components <==

  Entropy, S
    Electronic S            0.000 [cal/(mol K)]        0.000 [J/(mol K)]       0.00000000 [mEh/K] (multiplicity = 1)
    Translational S        35.923 [cal/(mol K)]      150.302 [J/(mol K)]       0.05724692 [mEh/K] (mol. weight = 27.9949 [u], P = 101325.00 [Pa])
    Rotational S           11.343 [cal/(mol K)]       47.458 [J/(mol K)]       0.01807582 [mEh/K] (symmetry no. = 1)
    Vibrational S           0.001 [cal/(mol K)]        0.004 [J/(mol K)]       0.00000142 [mEh/K]
  Total S                  47.267 [cal/(mol K)]      197.764 [J/(mol K)]       0.07532417 [mEh/K]
  Correction S              0.000 [cal/(mol K)]        0.000 [J/(mol K)]       0.00000000 [mEh/K]

  Constant volume heat capacity, Cv
    Electronic Cv           0.000 [cal/(mol K)]        0.000 [J/(mol K)]       0.00000000 [mEh/K]
    Translational Cv        2.981 [cal/(mol K)]       12.472 [J/(mol K)]       0.00475022 [mEh/K]
    Rotational Cv           1.987 [cal/(mol K)]        8.314 [J/(mol K)]       0.00316681 [mEh/K]
    Vibrational Cv          0.008 [cal/(mol K)]        0.034 [J/(mol K)]       0.00001311 [mEh/K]
  Total Cv                  4.976 [cal/(mol K)]       20.821 [J/(mol K)]       0.00793013 [mEh/K]
  Correction Cv             0.000 [cal/(mol K)]        0.000 [J/(mol K)]       0.00000000 [mEh/K]

  Constant pressure heat capacity, Cp
    Electronic Cp           0.000 [cal/(mol K)]        0.000 [J/(mol K)]       0.00000000 [mEh/K]
    Translational Cp        4.968 [cal/(mol K)]       20.786 [J/(mol K)]       0.00791703 [mEh/K]
    Rotational Cp           1.987 [cal/(mol K)]        8.314 [J/(mol K)]       0.00316681 [mEh/K]
    Vibrational Cp          0.008 [cal/(mol K)]        0.034 [J/(mol K)]       0.00001311 [mEh/K]
  Total Cp                  6.963 [cal/(mol K)]       29.135 [J/(mol K)]       0.01109694 [mEh/K]
  Correction Cp             0.000 [cal/(mol K)]        0.000 [J/(mol K)]       0.00000000 [mEh/K]

  ==> Thermochemistry Energy Analysis <==

  Raw electronic energy, E0
  Total E0, Electronic energy at well bottom at 0 [K]                 -113.05950485 [Eh]

  Zero-point energy, ZPE_vib = Sum_i nu_i / 2
    Electronic ZPE          0.000 [kcal/mol]        0.000 [kJ/mol]       0.00000000 [Eh]
    Translational ZPE       0.000 [kcal/mol]        0.000 [kJ/mol]       0.00000000 [Eh]
    Rotational ZPE          0.000 [kcal/mol]        0.000 [kJ/mol]       0.00000000 [Eh]
    Vibrational ZPE         2.997 [kcal/mol]       12.538 [kJ/mol]       0.00477546 [Eh]        1048.093 [cm^-1]
  Correction ZPE            2.997 [kcal/mol]       12.538 [kJ/mol]       0.00477546 [Eh]        1048.093 [cm^-1]
  Total ZPE, Electronic energy at 0 [K]                               -113.05472938 [Eh]

  Thermal Energy, E (includes ZPE)
    Electronic E            0.000 [kcal/mol]        0.000 [kJ/mol]       0.00000000 [Eh]
    Translational E         0.889 [kcal/mol]        3.718 [kJ/mol]       0.00141628 [Eh]
    Rotational E            0.592 [kcal/mol]        2.479 [kJ/mol]       0.00094418 [Eh]
    Vibrational E           2.997 [kcal/mol]       12.539 [kJ/mol]       0.00477585 [Eh]
  Correction E              4.478 [kcal/mol]       18.736 [kJ/mol]       0.00713631 [Eh]
  Total E, Electronic energy at  298.15 [K]                           -113.05236854 [Eh]

  Enthalpy, H_trans = E_trans + k_B * T
    Electronic H            0.000 [kcal/mol]        0.000 [kJ/mol]       0.00000000 [Eh]
    Translational H         1.481 [kcal/mol]        6.197 [kJ/mol]       0.00236046 [Eh]
    Rotational H            0.592 [kcal/mol]        2.479 [kJ/mol]       0.00094418 [Eh]
    Vibrational H           2.997 [kcal/mol]       12.539 [kJ/mol]       0.00477585 [Eh]
  Correction H              5.071 [kcal/mol]       21.215 [kJ/mol]       0.00808049 [Eh]
  Total H, Enthalpy at  298.15 [K]                                    -113.05142435 [Eh]

  Gibbs free energy, G = H - T * S
    Electronic G            0.000 [kcal/mol]        0.000 [kJ/mol]       0.00000000 [Eh]
    Translational G        -9.229 [kcal/mol]      -38.615 [kJ/mol]      -0.01470771 [Eh]
    Rotational G           -2.789 [kcal/mol]      -11.671 [kJ/mol]      -0.00444512 [Eh]
    Vibrational G           2.997 [kcal/mol]       12.538 [kJ/mol]       0.00477542 [Eh]
  Correction G             -9.022 [kcal/mol]      -37.748 [kJ/mol]      -0.01437741 [Eh]
  Total G, Free enthalpy at  298.15 [K]                               -113.07388225 [Eh]

*** Psi4 exiting successfully. Buy a developer a beer!
