                               Psi4 1.3.2 release

  ==> Input File <==

--------------------------------------------------------------------------
set basis  6-31++g**
molecule {
0 1
   C       -0.61446        0.00000        0.00000
   C        0.61446        0.00000        0.00000
   H       -1.68923        0.00000        0.00000
   H        1.68923        0.00000        0.00000
}
energy('B3LYP')
frequencies('B3LYP')
--------------------------------------------------------------------------

    Molecular point group: d2h
  Charge       = 0
  Multiplicity = 1
  Basis Set: 6-31++G**
    Blend: 6-31++G**
  Basis Set: (6-31++G** AUX)
    Blend: AUG-CC-PVDZ-JKFIT
  @DF-RKS Final Energy:   -77.33622026053652
    Total Energy =                        -77.3362202605365212
    Molecular point group: d2h
  Basis Set: 6-31++G**
    Blend: 6-31++G**
  Basis Set: (6-31++G** AUX)
    Blend: AUG-CC-PVDZ-JKFIT
  @DF-RKS Final Energy:   -77.33622026075663
    Total Energy =                        -77.3362202607566331
  Basis Set: 6-31++G**
    Blend: 6-31++G**
  Basis Set: (6-31++G** AUX)
    Blend: AUG-CC-PVDZ-JKFIT
  Basis Set: 6-31++G**
    Blend: 6-31++G**
  Basis Set: (6-31++G** AUX)
    Blend: AUG-CC-PVDZ-JKFIT
  @DF-RKS Final Energy:   -77.33622026075663
    Total Energy =                        -77.3362202607566331
  Basis Set: 6-31++G**
  @DF-RKS Final Energy:   -77.33614620825418
    Total Energy =                        -77.3361462082541777
  @DF-RKS Final Energy:   -77.33628932411850
    Total Energy =                        -77.3362893241185105
  @DF-RKS Final Energy:   -77.33617221816020
    Total Energy =                        -77.3361722181602147
  @DF-RKS Final Energy:   -77.33625849562405
    Total Energy =                        -77.3362584956240511
  @DF-RKS Final Energy:   -77.33622016569377
    Total Energy =                        -77.3362201656937742
  @DF-RKS Final Energy:   -77.33622013603089
    Total Energy =                        -77.3362201360308887
  @DF-RKS Final Energy:   -77.33622016542365
    Total Energy =                        -77.3362201654236543
  @DF-RKS Final Energy:   -77.33622013594299
    Total Energy =                        -77.3362201359429946
  @DF-RKS Final Energy:   -77.33621995523123
    Total Energy =                        -77.3362199552312291
  Basis Set: (6-31++G** AUX)
    Blend: AUG-CC-PVDZ-JKFIT
  Basis Set: 6-31++G**
    Blend: 6-31++G**
  Basis Set: (6-31++G** AUX)
    Blend: AUG-CC-PVDZ-JKFIT
  @DF-RKS Final Energy:   -77.33621995516023
    Total Energy =                        -77.3362199551602316
  Basis Set: 6-31++G**
    Blend: 6-31++G**
  Basis Set: (6-31++G** AUX)
    Blend: AUG-CC-PVDZ-JKFIT
    Molecular point group: c2v
  Charge       = 0
  Multiplicity = 1
  Basis Set: 6-31++G**
    Blend: 6-31++G**
  Basis Set: (6-31++G** AUX)
    Blend: AUG-CC-PVDZ-JKFIT

    Orbital Energies [Eh]
    ---------------------

    Doubly Occupied:

       1A1   -10.213938     2A1   -10.211909     3A1    -0.754008
       4A1    -0.575605     5A1    -0.500618     1B2    -0.294196
       1B1    -0.294196

  @DF-RKS Final Energy:   -77.33621494808071

   => Energetics <=

    Nuclear Repulsion Energy =             24.3232393838559098
    One-Electron Energy =                -150.9588314985649617
    Two-Electron Energy =                  58.5624795161352409
    DFT Exchange-Correlation Energy =      -9.2631023495068963
    Empirical Dispersion Energy =           0.0000000000000000
    VV10 Nonlocal Energy =                  0.0000000000000000
    Total Energy =                        -77.3362149480807091

  Dipole Moment: [D]
     X:     0.0040      Y:     0.0000      Z:     0.0000     Total:     0.0040

    Molecular point group: c2v

    Geometry (in Angstrom), charge = 0, multiplicity = 1:

       Center              X                  Y                   Z               Mass
    ------------   -----------------  -----------------  -----------------  -----------------
         C           -0.614610333491     0.000000000000     0.000000000000    12.000000000000
         C            0.614309666509     0.000000000000     0.000000000000    12.000000000000
         H           -1.687440004874     0.000000000000     0.000000000000     1.007825032230
         H            1.691019995126     0.000000000000     0.000000000000     1.007825032230

  Basis Set: 6-31++G**
    Blend: 6-31++G**
  Basis Set: (6-31++G** AUX)
    Blend: AUG-CC-PVDZ-JKFIT

  -Total Gradient:
     Atom            X                  Y                   Z
    ------   -----------------  -----------------  -----------------
       1       -0.036514167823     0.000000000000     0.000000000000
       2        0.033615610143     0.000000000000     0.000000000000
       3       -0.004669557754     0.000000000000     0.000000000000
       4        0.007568139514     0.000000000000     0.000000000000

  Vibration                       4                   5                   6
  Freq [cm^-1]                 245.0220            245.0227            636.4855
  Irrep                          B2g                 B1g                 B1g
  Reduced mass [u]              2.1912              2.1912              1.6150
  Force const [mDyne/A]         0.0775              0.0775              0.3855

  Vibration                       7                   8                   9
  Freq [cm^-1]                 636.4860            803.9512            803.9526
  Irrep                          B2g                 B2u                 B1u
  Reduced mass [u]              1.6150              1.0848              1.0848
  Force const [mDyne/A]         0.3855              0.4131              0.4131

  Vibration                       10                  11                  12
  Freq [cm^-1]                1952.7673           3351.6911           3439.2397
  Irrep                           Ag                 B3u                  Ag
  Reduced mass [u]              4.0158              1.0848              1.2098
  Force const [mDyne/A]         9.0225              7.1802              8.4315

  ==> Thermochemistry Components <==

  Entropy, S
    Electronic S            0.000 [cal/(mol K)]        0.000 [J/(mol K)]       0.00000000 [mEh/K] (multiplicity = 1)
    Translational S        35.704 [cal/(mol K)]      149.387 [J/(mol K)]       0.05689862 [mEh/K] (mol. weight = 26.0157 [u], P = 101325.00 [Pa])
    Rotational S           10.952 [cal/(mol K)]       45.824 [J/(mol K)]       0.01745345 [mEh/K] (symmetry no. = 2)
    Vibrational S           4.724 [cal/(mol K)]       19.766 [J/(mol K)]       0.00752834 [mEh/K]
  Total S                  51.381 [cal/(mol K)]      214.977 [J/(mol K)]       0.08188041 [mEh/K]
  Correction S              0.000 [cal/(mol K)]        0.000 [J/(mol K)]       0.00000000 [mEh/K]

  Constant volume heat capacity, Cv
    Electronic Cv           0.000 [cal/(mol K)]        0.000 [J/(mol K)]       0.00000000 [mEh/K]
    Translational Cv        2.981 [cal/(mol K)]       12.472 [J/(mol K)]       0.00475022 [mEh/K]
    Rotational Cv           1.987 [cal/(mol K)]        8.314 [J/(mol K)]       0.00316681 [mEh/K]
    Vibrational Cv          6.756 [cal/(mol K)]       28.267 [J/(mol K)]       0.01076620 [mEh/K]
  Total Cv                 11.724 [cal/(mol K)]       49.053 [J/(mol K)]       0.01868323 [mEh/K]
  Correction Cv             0.000 [cal/(mol K)]        0.000 [J/(mol K)]       0.00000000 [mEh/K]

  Constant pressure heat capacity, Cp
    Electronic Cp           0.000 [cal/(mol K)]        0.000 [J/(mol K)]       0.00000000 [mEh/K]
    Translational Cp        4.968 [cal/(mol K)]       20.786 [J/(mol K)]       0.00791703 [mEh/K]
    Rotational Cp           1.987 [cal/(mol K)]        8.314 [J/(mol K)]       0.00316681 [mEh/K]
    Vibrational Cp          6.756 [cal/(mol K)]       28.267 [J/(mol K)]       0.01076620 [mEh/K]
  Total Cp                 13.711 [cal/(mol K)]       57.367 [J/(mol K)]       0.02185004 [mEh/K]
  Correction Cp             0.000 [cal/(mol K)]        0.000 [J/(mol K)]       0.00000000 [mEh/K]

  ==> Thermochemistry Energy Analysis <==

  Raw electronic energy, E0
  Total E0, Electronic energy at well bottom at 0 [K]                  -77.33622026 [Eh]

  Zero-point energy, ZPE_vib = Sum_i nu_i / 2
    Electronic ZPE          0.000 [kcal/mol]        0.000 [kJ/mol]       0.00000000 [Eh]
    Translational ZPE       0.000 [kcal/mol]        0.000 [kJ/mol]       0.00000000 [Eh]
    Rotational ZPE          0.000 [kcal/mol]        0.000 [kJ/mol]       0.00000000 [Eh]
    Vibrational ZPE        17.319 [kcal/mol]       72.462 [kJ/mol]       0.02759913 [Eh]        6057.309 [cm^-1]
  Correction ZPE           17.319 [kcal/mol]       72.462 [kJ/mol]       0.02759913 [Eh]        6057.309 [cm^-1]
  Total ZPE, Electronic energy at 0 [K]                                -77.30862113 [Eh]

  Thermal Energy, E (includes ZPE)
    Electronic E            0.000 [kcal/mol]        0.000 [kJ/mol]       0.00000000 [Eh]
    Translational E         0.889 [kcal/mol]        3.718 [kJ/mol]       0.00141628 [Eh]
    Rotational E            0.592 [kcal/mol]        2.479 [kJ/mol]       0.00094418 [Eh]
    Vibrational E          18.212 [kcal/mol]       76.201 [kJ/mol]       0.02902332 [Eh]
  Correction E             19.694 [kcal/mol]       82.398 [kJ/mol]       0.03138378 [Eh]
  Total E, Electronic energy at  298.15 [K]                            -77.30483648 [Eh]

  Enthalpy, H_trans = E_trans + k_B * T
    Electronic H            0.000 [kcal/mol]        0.000 [kJ/mol]       0.00000000 [Eh]
    Translational H         1.481 [kcal/mol]        6.197 [kJ/mol]       0.00236046 [Eh]
    Rotational H            0.592 [kcal/mol]        2.479 [kJ/mol]       0.00094418 [Eh]
    Vibrational H          18.212 [kcal/mol]       76.201 [kJ/mol]       0.02902332 [Eh]
  Correction H             20.286 [kcal/mol]       84.877 [kJ/mol]       0.03232797 [Eh]
  Total H, Enthalpy at  298.15 [K]                                     -77.30389230 [Eh]

  Gibbs free energy, G = H - T * S
    Electronic G            0.000 [kcal/mol]        0.000 [kJ/mol]       0.00000000 [Eh]
    Translational G        -9.164 [kcal/mol]      -38.342 [kJ/mol]      -0.01460386 [Eh]
    Rotational G           -2.673 [kcal/mol]      -11.183 [kJ/mol]      -0.00425956 [Eh]
    Vibrational G          16.804 [kcal/mol]       70.308 [kJ/mol]       0.02677874 [Eh]
  Correction G              4.967 [kcal/mol]       20.782 [kJ/mol]       0.00791532 [Eh]
  Total G, Free enthalpy at  298.15 [K]                                -77.32830494 [Eh]

*** Psi4 exiting successfully. Buy a developer a beer!
