                               Psi4 1.3.2 release

  ==> Input File <==

--------------------------------------------------------------------------
set basis  6-311++G**
molecule {
0 1
   O        0.00000        0.00000       -0.06797
   H        0.74903        0.00000        0.53936
   H       -0.74903        0.00000        0.53936
}
energy('B3LYP')
frequencies('B3LYP')

--------------------------------------------------------------------------

    Molecular point group: c2v
  Charge       = 0
  Multiplicity = 1
  Basis Set: 6-311++G**
    Blend: 6-311++G**
  Basis Set: (6-311++G** AUX)
    Blend: AUG-CC-PVTZ-JKFIT
  @DF-RKS Final Energy:   -76.45830618085162
    Total Energy =                        -76.4583061808516220
    Molecular point group: c2v
  Basis Set: 6-311++G**
    Blend: 6-311++G**
  Basis Set: (6-311++G** AUX)
    Blend: AUG-CC-PVTZ-JKFIT
  @DF-RKS Final Energy:   -76.45830618086026
    Total Energy =                        -76.4583061808602622
  Basis Set: 6-311++G**
    Blend: 6-311++G**
  Basis Set: (6-311++G** AUX)
    Blend: AUG-CC-PVTZ-JKFIT
  Basis Set: 6-311++G**
    Blend: 6-311++G**
  Basis Set: (6-311++G** AUX)
    Blend: AUG-CC-PVTZ-JKFIT
  @DF-RKS Final Energy:   -76.45830618086021
    Total Energy =                        -76.4583061808602054
  Basis Set: 6-311++G**
  @DF-RKS Final Energy:   -76.45827346417461
    Total Energy =                        -76.4582734641746100
  @DF-RKS Final Energy:   -76.45833240681108
    Total Energy =                        -76.4583324068110812
  @DF-RKS Final Energy:   -76.45828418152500
    Total Energy =                        -76.4582841815250021
  Basis Set: (6-311++G** AUX)
    Blend: AUG-CC-PVTZ-JKFIT
  Basis Set: 6-311++G**
    Blend: 6-311++G**
  Basis Set: (6-311++G** AUX)
    Blend: AUG-CC-PVTZ-JKFIT
  @DF-RKS Final Energy:   -76.45831844098306
    Total Energy =                        -76.4583184409830636
  Basis Set: 6-311++G**
    Blend: 6-311++G**
  Basis Set: (6-311++G** AUX)
    Blend: AUG-CC-PVTZ-JKFIT
    Molecular point group: cs
  Charge       = 0
  Multiplicity = 1
  Basis Set: 6-311++G**
    Blend: 6-311++G**
  Basis Set: (6-311++G** AUX)
    Blend: AUG-CC-PVTZ-JKFIT

    Orbital Energies [Eh]
    ---------------------

    Doubly Occupied:

       1Ap   -19.134853     2Ap    -1.024507     3Ap    -0.536596
       4Ap    -0.402482     1App   -0.323385

  @DF-RKS Final Energy:   -76.45829905496875

   => Energetics <=

    Nuclear Repulsion Energy =              9.1334682877742281
    One-Electron Energy =                -122.9189186926319906
    Two-Electron Energy =                  44.8763514919782267
    DFT Exchange-Correlation Energy =      -7.5492001420892194
    Empirical Dispersion Energy =           0.0000000000000000
    VV10 Nonlocal Energy =                  0.0000000000000000
    Total Energy =                        -76.4582990549687480

  Dipole Moment: [D]
     X:     0.0028      Y:     0.0000      Z:     2.2031     Total:     2.2031

    Molecular point group: cs

    Geometry (in Angstrom), charge = 0, multiplicity = 1:

       Center              X                  Y                   Z               Mass
    ------------   -----------------  -----------------  -----------------  -----------------
         O           -0.000175859669     0.000000000000    -0.067969259994    15.994914619570
         H            0.750425510279     0.000000000000     0.540492250436     1.007825032230
         H           -0.747634489721     0.000000000000     0.538229229576     1.007825032230

  Basis Set: 6-311++G**
    Blend: 6-311++G**
  Basis Set: (6-311++G** AUX)
    Blend: AUG-CC-PVTZ-JKFIT

  -Total Gradient:
     Atom            X                  Y                   Z
    ------   -----------------  -----------------  -----------------
       1       -0.003043485097     0.000000000000    -0.007886373533
       2       -0.000918997095     0.000000000000     0.005155469588
       3        0.003960397470     0.000000000000     0.002713303378

  Vibration                       7                   8                   9
  Freq [cm^-1]                1642.5475           3802.1821           3881.5213
  Irrep                           A1                  A1                  B1
  Reduced mass [u]              1.0811              1.0467              1.0793
  Force const [mDyne/A]         1.7185              8.9151              9.5805

  ==> Thermochemistry Components <==

  Entropy, S
    Electronic S            0.000 [cal/(mol K)]        0.000 [J/(mol K)]       0.00000000 [mEh/K] (multiplicity = 1)
    Translational S        34.608 [cal/(mol K)]      144.801 [J/(mol K)]       0.05515177 [mEh/K] (mol. weight = 18.0106 [u], P = 101325.00 [Pa])
    Rotational S           10.508 [cal/(mol K)]       43.968 [J/(mol K)]       0.01674635 [mEh/K] (symmetry no. = 2)
    Vibrational S           0.006 [cal/(mol K)]        0.027 [J/(mol K)]       0.00001021 [mEh/K]
  Total S                  45.123 [cal/(mol K)]      188.795 [J/(mol K)]       0.07190834 [mEh/K]
  Correction S              0.000 [cal/(mol K)]        0.000 [J/(mol K)]       0.00000000 [mEh/K]

  Constant volume heat capacity, Cv
    Electronic Cv           0.000 [cal/(mol K)]        0.000 [J/(mol K)]       0.00000000 [mEh/K]
    Translational Cv        2.981 [cal/(mol K)]       12.472 [J/(mol K)]       0.00475022 [mEh/K]
    Rotational Cv           2.981 [cal/(mol K)]       12.472 [J/(mol K)]       0.00475022 [mEh/K]
    Vibrational Cv          0.045 [cal/(mol K)]        0.189 [J/(mol K)]       0.00007191 [mEh/K]
  Total Cv                  6.007 [cal/(mol K)]       25.132 [J/(mol K)]       0.00957234 [mEh/K]
  Correction Cv             0.000 [cal/(mol K)]        0.000 [J/(mol K)]       0.00000000 [mEh/K]

  Constant pressure heat capacity, Cp
    Electronic Cp           0.000 [cal/(mol K)]        0.000 [J/(mol K)]       0.00000000 [mEh/K]
    Translational Cp        4.968 [cal/(mol K)]       20.786 [J/(mol K)]       0.00791703 [mEh/K]
    Rotational Cp           2.981 [cal/(mol K)]       12.472 [J/(mol K)]       0.00475022 [mEh/K]
    Vibrational Cp          0.045 [cal/(mol K)]        0.189 [J/(mol K)]       0.00007191 [mEh/K]
  Total Cp                  7.994 [cal/(mol K)]       33.447 [J/(mol K)]       0.01273916 [mEh/K]
  Correction Cp             0.000 [cal/(mol K)]        0.000 [J/(mol K)]       0.00000000 [mEh/K]

  ==> Thermochemistry Energy Analysis <==

  Raw electronic energy, E0
  Total E0, Electronic energy at well bottom at 0 [K]                  -76.45830618 [Eh]

  Zero-point energy, ZPE_vib = Sum_i nu_i / 2
    Electronic ZPE          0.000 [kcal/mol]        0.000 [kJ/mol]       0.00000000 [Eh]
    Translational ZPE       0.000 [kcal/mol]        0.000 [kJ/mol]       0.00000000 [Eh]
    Rotational ZPE          0.000 [kcal/mol]        0.000 [kJ/mol]       0.00000000 [Eh]
    Vibrational ZPE        13.333 [kcal/mol]       55.783 [kJ/mol]       0.02124676 [Eh]        4663.125 [cm^-1]
  Correction ZPE           13.333 [kcal/mol]       55.783 [kJ/mol]       0.02124676 [Eh]        4663.125 [cm^-1]
  Total ZPE, Electronic energy at 0 [K]                                -76.43705942 [Eh]

  Thermal Energy, E (includes ZPE)
    Electronic E            0.000 [kcal/mol]        0.000 [kJ/mol]       0.00000000 [Eh]
    Translational E         0.889 [kcal/mol]        3.718 [kJ/mol]       0.00141628 [Eh]
    Rotational E            0.889 [kcal/mol]        3.718 [kJ/mol]       0.00141628 [Eh]
    Vibrational E          13.334 [kcal/mol]       55.790 [kJ/mol]       0.02124947 [Eh]
  Correction E             15.112 [kcal/mol]       63.227 [kJ/mol]       0.02408202 [Eh]
  Total E, Electronic energy at  298.15 [K]                            -76.43422416 [Eh]

  Enthalpy, H_trans = E_trans + k_B * T
    Electronic H            0.000 [kcal/mol]        0.000 [kJ/mol]       0.00000000 [Eh]
    Translational H         1.481 [kcal/mol]        6.197 [kJ/mol]       0.00236046 [Eh]
    Rotational H            0.889 [kcal/mol]        3.718 [kJ/mol]       0.00141628 [Eh]
    Vibrational H          13.334 [kcal/mol]       55.790 [kJ/mol]       0.02124947 [Eh]
  Correction H             15.704 [kcal/mol]       65.706 [kJ/mol]       0.02502620 [Eh]
  Total H, Enthalpy at  298.15 [K]                                     -76.43327998 [Eh]

  Gibbs free energy, G = H - T * S
    Electronic G            0.000 [kcal/mol]        0.000 [kJ/mol]       0.00000000 [Eh]
    Translational G        -8.837 [kcal/mol]      -36.975 [kJ/mol]      -0.01408304 [Eh]
    Rotational G           -2.244 [kcal/mol]       -9.390 [kJ/mol]      -0.00357665 [Eh]
    Vibrational G          13.332 [kcal/mol]       55.782 [kJ/mol]       0.02124642 [Eh]
  Correction G              2.251 [kcal/mol]        9.417 [kJ/mol]       0.00358673 [Eh]
  Total G, Free enthalpy at  298.15 [K]                                -76.45471945 [Eh]

*** Psi4 exiting successfully. Buy a developer a beer!
