                               Psi4 1.3.2 release

  ==> Input File <==

--------------------------------------------------------------------------
set basis  6-31G
molecule {
0 1
   O        0.00000        0.00000        0.49152
   C        0.00000        0.00000       -0.65516
}
energy('B3LYP')
frequencies('B3LYP')
--------------------------------------------------------------------------

    Molecular point group: c2v
  Charge       = 0
  Multiplicity = 1
  Basis Set: 6-31G
    Blend: 6-31G
  Basis Set: (6-31G AUX)
    Blend: CC-PVDZ-JKFIT
  @DF-RKS Final Energy:  -113.25897534534467
    Total Energy =                       -113.2589753453446519
    Molecular point group: c2v
  Basis Set: 6-31G
    Blend: 6-31G
  Basis Set: (6-31G AUX)
    Blend: CC-PVDZ-JKFIT
  @DF-RKS Final Energy:  -113.25897534534519
    Total Energy =                       -113.2589753453451920
  Basis Set: 6-31G
    Blend: 6-31G
  Basis Set: (6-31G AUX)
    Blend: CC-PVDZ-JKFIT
  Basis Set: 6-31G
    Blend: 6-31G
  Basis Set: (6-31G AUX)
    Blend: CC-PVDZ-JKFIT
  @DF-RKS Final Energy:  -113.25897534534519
    Total Energy =                       -113.2589753453451920
  Basis Set: 6-31G
  @DF-RKS Final Energy:  -113.25893365896857
    Total Energy =                       -113.2589336589685729
  @DF-RKS Final Energy:  -113.25901271182211
    Total Energy =                       -113.2590127118221091
  Basis Set: (6-31G AUX)
    Blend: CC-PVDZ-JKFIT
  Basis Set: 6-31G
    Blend: 6-31G
  Basis Set: (6-31G AUX)
    Blend: CC-PVDZ-JKFIT
  @DF-RKS Final Energy:  -113.25897536279945
    Total Energy =                       -113.2589753627994469
  Basis Set: 6-31G
    Blend: 6-31G
  Basis Set: (6-31G AUX)
    Blend: CC-PVDZ-JKFIT
    Molecular point group: cs
  Charge       = 0
  Multiplicity = 1
  Basis Set: 6-31G
    Blend: 6-31G
  Basis Set: (6-31G AUX)
    Blend: CC-PVDZ-JKFIT

    Orbital Energies [Eh]
    ---------------------

    Doubly Occupied:

       1Ap   -19.265477     2Ap   -10.326880     3Ap    -1.195437
       4Ap    -0.569165     1App   -0.477475     5Ap    -0.477475
       6Ap    -0.371774

  @DF-RKS Final Energy:  -113.25897536280604

   => Energetics <=

    Nuclear Repulsion Energy =             22.1513379928885605
    One-Electron Energy =                -197.3798341280036084
    Two-Electron Energy =                  73.1938775036079790
    DFT Exchange-Correlation Energy =     -11.2243567312989754
    Empirical Dispersion Energy =           0.0000000000000000
    VV10 Nonlocal Energy =                  0.0000000000000000
    Total Energy =                       -113.2589753628060407

  Dipole Moment: [D]
     X:     0.0000      Y:     0.0001      Z:    -0.0961     Total:     0.0961

    Molecular point group: cs

    Geometry (in Angstrom), charge = 0, multiplicity = 1:

       Center              X                  Y                   Z               Mass
    ------------   -----------------  -----------------  -----------------  -----------------
         O            0.000000000000    -0.000433142923     0.491523556581    15.994914619570
         C            0.000000000000     0.000577340340    -0.655156443419    12.000000000000

  Basis Set: 6-31G
    Blend: 6-31G
  Basis Set: (6-31G AUX)
    Blend: CC-PVDZ-JKFIT

  -Total Gradient:
     Atom            X                  Y                   Z
    ------   -----------------  -----------------  -----------------
       1        0.000000000000     0.000018245165    -0.020704317431
       2        0.000000000000    -0.000018241659     0.020700338136

  Vibration                       1                   2                   6
  Freq [cm^-1]                191.8882i           191.8882i           2136.9040
  Irrep                           B2                  B1                  A1
  Reduced mass [u]             13.4388             13.4388             13.4388
  Force const [mDyne/A]        -0.2915             -0.2915             36.1559

  ==> Thermochemistry Components <==

  Entropy, S
    Electronic S            0.000 [cal/(mol K)]        0.000 [J/(mol K)]       0.00000000 [mEh/K] (multiplicity = 1)
    Translational S        35.923 [cal/(mol K)]      150.302 [J/(mol K)]       0.05724692 [mEh/K] (mol. weight = 27.9949 [u], P = 101325.00 [Pa])
    Rotational S           11.343 [cal/(mol K)]       47.458 [J/(mol K)]       0.01807582 [mEh/K] (symmetry no. = 1)
    Vibrational S           0.001 [cal/(mol K)]        0.003 [J/(mol K)]       0.00000119 [mEh/K]
  Total S                  47.266 [cal/(mol K)]      197.763 [J/(mol K)]       0.07532394 [mEh/K]
  Correction S              0.000 [cal/(mol K)]        0.000 [J/(mol K)]       0.00000000 [mEh/K]

  Constant volume heat capacity, Cv
    Electronic Cv           0.000 [cal/(mol K)]        0.000 [J/(mol K)]       0.00000000 [mEh/K]
    Translational Cv        2.981 [cal/(mol K)]       12.472 [J/(mol K)]       0.00475022 [mEh/K]
    Rotational Cv           1.987 [cal/(mol K)]        8.314 [J/(mol K)]       0.00316681 [mEh/K]
    Vibrational Cv          0.007 [cal/(mol K)]        0.029 [J/(mol K)]       0.00001119 [mEh/K]
  Total Cv                  4.975 [cal/(mol K)]       20.816 [J/(mol K)]       0.00792822 [mEh/K]
  Correction Cv             0.000 [cal/(mol K)]        0.000 [J/(mol K)]       0.00000000 [mEh/K]

  Constant pressure heat capacity, Cp
    Electronic Cp           0.000 [cal/(mol K)]        0.000 [J/(mol K)]       0.00000000 [mEh/K]
    Translational Cp        4.968 [cal/(mol K)]       20.786 [J/(mol K)]       0.00791703 [mEh/K]
    Rotational Cp           1.987 [cal/(mol K)]        8.314 [J/(mol K)]       0.00316681 [mEh/K]
    Vibrational Cp          0.007 [cal/(mol K)]        0.029 [J/(mol K)]       0.00001119 [mEh/K]
  Total Cp                  6.962 [cal/(mol K)]       29.130 [J/(mol K)]       0.01109503 [mEh/K]
  Correction Cp             0.000 [cal/(mol K)]        0.000 [J/(mol K)]       0.00000000 [mEh/K]

  ==> Thermochemistry Energy Analysis <==

  Raw electronic energy, E0
  Total E0, Electronic energy at well bottom at 0 [K]                 -113.25897535 [Eh]

  Zero-point energy, ZPE_vib = Sum_i nu_i / 2
    Electronic ZPE          0.000 [kcal/mol]        0.000 [kJ/mol]       0.00000000 [Eh]
    Translational ZPE       0.000 [kcal/mol]        0.000 [kJ/mol]       0.00000000 [Eh]
    Rotational ZPE          0.000 [kcal/mol]        0.000 [kJ/mol]       0.00000000 [Eh]
    Vibrational ZPE         3.055 [kcal/mol]       12.782 [kJ/mol]       0.00486823 [Eh]        1068.452 [cm^-1]
  Correction ZPE            3.055 [kcal/mol]       12.782 [kJ/mol]       0.00486823 [Eh]        1068.452 [cm^-1]
  Total ZPE, Electronic energy at 0 [K]                               -113.25410712 [Eh]

  Thermal Energy, E (includes ZPE)
    Electronic E            0.000 [kcal/mol]        0.000 [kJ/mol]       0.00000000 [Eh]
    Translational E         0.889 [kcal/mol]        3.718 [kJ/mol]       0.00141628 [Eh]
    Rotational E            0.592 [kcal/mol]        2.479 [kJ/mol]       0.00094418 [Eh]
    Vibrational E           3.055 [kcal/mol]       12.782 [kJ/mol]       0.00486855 [Eh]
  Correction E              4.536 [kcal/mol]       18.980 [kJ/mol]       0.00722901 [Eh]
  Total E, Electronic energy at  298.15 [K]                           -113.25174633 [Eh]

  Enthalpy, H_trans = E_trans + k_B * T
    Electronic H            0.000 [kcal/mol]        0.000 [kJ/mol]       0.00000000 [Eh]
    Translational H         1.481 [kcal/mol]        6.197 [kJ/mol]       0.00236046 [Eh]
    Rotational H            0.592 [kcal/mol]        2.479 [kJ/mol]       0.00094418 [Eh]
    Vibrational H           3.055 [kcal/mol]       12.782 [kJ/mol]       0.00486855 [Eh]
  Correction H              5.129 [kcal/mol]       21.459 [kJ/mol]       0.00817320 [Eh]
  Total H, Enthalpy at  298.15 [K]                                    -113.25080215 [Eh]

  Gibbs free energy, G = H - T * S
    Electronic G            0.000 [kcal/mol]        0.000 [kJ/mol]       0.00000000 [Eh]
    Translational G        -9.229 [kcal/mol]      -38.615 [kJ/mol]      -0.01470771 [Eh]
    Rotational G           -2.789 [kcal/mol]      -11.671 [kJ/mol]      -0.00444512 [Eh]
    Vibrational G           3.055 [kcal/mol]       12.781 [kJ/mol]       0.00486819 [Eh]
  Correction G             -8.964 [kcal/mol]      -37.504 [kJ/mol]      -0.01428464 [Eh]
  Total G, Free enthalpy at  298.15 [K]                               -113.27325998 [Eh]

*** Psi4 exiting successfully. Buy a developer a beer!
