                               Psi4 1.3.2 release

  ==> Input File <==

--------------------------------------------------------------------------
set basis  aug-cc-pVTZ
molecule {
0 1
   O        0.00000        0.00000        0.49152
   C        0.00000        0.00000       -0.65516
}
energy('scf')
frequencies('scf')
--------------------------------------------------------------------------

    Molecular point group: c2v
  Charge       = 0
  Multiplicity = 1
  Basis Set: AUG-CC-PVTZ
    Blend: AUG-CC-PVTZ
  Basis Set: (AUG-CC-PVTZ AUX)
    Blend: AUG-CC-PVTZ-JKFIT
  @DF-RHF Final Energy:  -112.77835098088421
    Total Energy =                       -112.7783509808842126
    Molecular point group: c2v
  Basis Set: AUG-CC-PVTZ
    Blend: AUG-CC-PVTZ
  Basis Set: (AUG-CC-PVTZ AUX)
    Blend: AUG-CC-PVTZ-JKFIT
  @DF-RHF Final Energy:  -112.77835098115627
    Total Energy =                       -112.7783509811562652
  Basis Set: AUG-CC-PVTZ
    Blend: AUG-CC-PVTZ
  Basis Set: (AUG-CC-PVTZ AUX)
    Blend: AUG-CC-PVTZ-JKFIT

  -Total Gradient:
     Atom            X                  Y                   Z
    ------   -----------------  -----------------  -----------------
       1       -0.000000000000     0.000000000000     0.105963539364
       2        0.000000000000    -0.000000000000    -0.105963539364

  Charge       = 0
  Multiplicity = 1
  Basis Set: AUG-CC-PVTZ
    Blend: AUG-CC-PVTZ
  Basis Set: (AUG-CC-PVTZ AUX)
    Blend: AUG-CC-PVTZ-JKFIT

    Orbital Energies [Eh]
    ---------------------

    Doubly Occupied:

       1A1   -20.668865     2A1   -11.370283     3A1    -1.510410
       4A1    -0.803351     1B2    -0.632586     1B1    -0.632586
       5A1    -0.556999

  @DF-RHF Final Energy:  -112.77835098115627

   => Energetics <=

    Nuclear Repulsion Energy =             22.1513465937837957
    One-Electron Energy =                -197.5092355743494750
    Two-Electron Energy =                  62.5795379994094247
    Total Energy =                       -112.7783509811562652

  Dipole Moment: [D]
     X:     0.0000      Y:     0.0000      Z:    -0.3590     Total:     0.3590

    Molecular point group: c2v
  Basis Set: AUG-CC-PVTZ
    Blend: AUG-CC-PVTZ
  Basis Set: (AUG-CC-PVTZ AUX)
    Blend: AUG-CC-PVTZ-JKFIT
  Basis Set: (AUG-CC-PVTZ AUX)
    Blend: AUG-CC-PVTZ-JKFIT
    Molecular point group: c2v

    Geometry (in Angstrom), charge = 0, multiplicity = 1:

       Center              X                  Y                   Z               Mass
    ------------   -----------------  -----------------  -----------------  -----------------
         O            0.000000000000     0.000000000000     0.491523556581    15.994914619570
         C            0.000000000000     0.000000000000    -0.655156443419    12.000000000000

  Basis Set: AUG-CC-PVTZ
    Blend: AUG-CC-PVTZ
  Basis Set: (AUG-CC-PVTZ AUX)
    Blend: AUG-CC-PVTZ-JKFIT

  Vibration                       4                   5                   6
  Freq [cm^-1]                 434.1301            434.1301           2089.9939
  Irrep                                                                   A1
  Reduced mass [u]             13.4388             13.4388             13.4388
  Force const [mDyne/A]         1.4923              1.4923             34.5859

  IR activ [km/mol]             0.6040              0.6040             154.4129

  ==> Thermochemistry Components <==

  Entropy, S
    Electronic S            0.000 [cal/(mol K)]        0.000 [J/(mol K)]       0.00000000 [mEh/K] (multiplicity = 1)
    Translational S        35.923 [cal/(mol K)]      150.302 [J/(mol K)]       0.05724692 [mEh/K] (mol. weight = 27.9949 [u], P = 101325.00 [Pa])
    Rotational S           11.343 [cal/(mol K)]       47.458 [J/(mol K)]       0.01807582 [mEh/K] (symmetry no. = 1)
    Vibrational S           1.691 [cal/(mol K)]        7.077 [J/(mol K)]       0.00269549 [mEh/K]
  Total S                  48.957 [cal/(mol K)]      204.837 [J/(mol K)]       0.07801824 [mEh/K]
  Correction S              0.000 [cal/(mol K)]        0.000 [J/(mol K)]       0.00000000 [mEh/K]

  Constant volume heat capacity, Cv
    Electronic Cv           0.000 [cal/(mol K)]        0.000 [J/(mol K)]       0.00000000 [mEh/K]
    Translational Cv        2.981 [cal/(mol K)]       12.472 [J/(mol K)]       0.00475022 [mEh/K]
    Rotational Cv           1.987 [cal/(mol K)]        8.314 [J/(mol K)]       0.00316681 [mEh/K]
    Vibrational Cv          2.800 [cal/(mol K)]       11.716 [J/(mol K)]       0.00446227 [mEh/K]
  Total Cv                  7.768 [cal/(mol K)]       32.502 [J/(mol K)]       0.01237930 [mEh/K]
  Correction Cv             0.000 [cal/(mol K)]        0.000 [J/(mol K)]       0.00000000 [mEh/K]

  Constant pressure heat capacity, Cp
    Electronic Cp           0.000 [cal/(mol K)]        0.000 [J/(mol K)]       0.00000000 [mEh/K]
    Translational Cp        4.968 [cal/(mol K)]       20.786 [J/(mol K)]       0.00791703 [mEh/K]
    Rotational Cp           1.987 [cal/(mol K)]        8.314 [J/(mol K)]       0.00316681 [mEh/K]
    Vibrational Cp          2.800 [cal/(mol K)]       11.716 [J/(mol K)]       0.00446227 [mEh/K]
  Total Cp                  9.755 [cal/(mol K)]       40.816 [J/(mol K)]       0.01554611 [mEh/K]
  Correction Cp             0.000 [cal/(mol K)]        0.000 [J/(mol K)]       0.00000000 [mEh/K]

  ==> Thermochemistry Energy Analysis <==

  Raw electronic energy, E0
  Total E0, Electronic energy at well bottom at 0 [K]                 -112.77835098 [Eh]

  Zero-point energy, ZPE_vib = Sum_i nu_i / 2
    Electronic ZPE          0.000 [kcal/mol]        0.000 [kJ/mol]       0.00000000 [Eh]
    Translational ZPE       0.000 [kcal/mol]        0.000 [kJ/mol]       0.00000000 [Eh]
    Rotational ZPE          0.000 [kcal/mol]        0.000 [kJ/mol]       0.00000000 [Eh]
    Vibrational ZPE         4.229 [kcal/mol]       17.694 [kJ/mol]       0.00673940 [Eh]        1479.127 [cm^-1]
  Correction ZPE            4.229 [kcal/mol]       17.694 [kJ/mol]       0.00673940 [Eh]        1479.127 [cm^-1]
  Total ZPE, Electronic energy at 0 [K]                               -112.77161158 [Eh]

  Thermal Energy, E (includes ZPE)
    Electronic E            0.000 [kcal/mol]        0.000 [kJ/mol]       0.00000000 [Eh]
    Translational E         0.889 [kcal/mol]        3.718 [kJ/mol]       0.00141628 [Eh]
    Rotational E            0.592 [kcal/mol]        2.479 [kJ/mol]       0.00094418 [Eh]
    Vibrational E           4.578 [kcal/mol]       19.153 [kJ/mol]       0.00729502 [Eh]
  Correction E              6.059 [kcal/mol]       25.350 [kJ/mol]       0.00965548 [Eh]
  Total E, Electronic energy at  298.15 [K]                           -112.76869550 [Eh]

  Enthalpy, H_trans = E_trans + k_B * T
    Electronic H            0.000 [kcal/mol]        0.000 [kJ/mol]       0.00000000 [Eh]
    Translational H         1.481 [kcal/mol]        6.197 [kJ/mol]       0.00236046 [Eh]
    Rotational H            0.592 [kcal/mol]        2.479 [kJ/mol]       0.00094418 [Eh]
    Vibrational H           4.578 [kcal/mol]       19.153 [kJ/mol]       0.00729502 [Eh]
  Correction H              6.651 [kcal/mol]       27.829 [kJ/mol]       0.01059966 [Eh]
  Total H, Enthalpy at  298.15 [K]                                    -112.76775132 [Eh]

  Gibbs free energy, G = H - T * S
    Electronic G            0.000 [kcal/mol]        0.000 [kJ/mol]       0.00000000 [Eh]
    Translational G        -9.229 [kcal/mol]      -38.615 [kJ/mol]      -0.01470771 [Eh]
    Rotational G           -2.789 [kcal/mol]      -11.671 [kJ/mol]      -0.00444512 [Eh]
    Vibrational G           4.073 [kcal/mol]       17.043 [kJ/mol]       0.00649136 [Eh]
  Correction G             -7.945 [kcal/mol]      -33.243 [kJ/mol]      -0.01266148 [Eh]
  Total G, Free enthalpy at  298.15 [K]                               -112.79101246 [Eh]

*** Psi4 exiting successfully. Buy a developer a beer!
