                               Psi4 1.3.2 release

  ==> Input File <==

--------------------------------------------------------------------------
set basis  cc-pVTZ
molecule {
0 1
   C        0.32153        0.81326        0.00000
   C       -0.86505       -0.12817        0.00000
   C        0.54353       -0.68508        0.00000
   H        0.53795        1.36069       -0.92039
   H        0.53795        1.36069        0.92039
   H       -1.44742       -0.21449        0.92034
   H       -1.44742       -0.21449       -0.92034
   H        0.90937       -1.14629       -0.92037
   H        0.90937       -1.14629        0.92037
}
energy('MP2')
frequencies('MP2')
--------------------------------------------------------------------------

    Molecular point group: cs
  Charge       = 0
  Multiplicity = 1
  Basis Set: CC-PVTZ
    Blend: CC-PVTZ
  Basis Set: (CC-PVTZ AUX)
    Blend: CC-PVTZ-JKFIT
  @DF-RHF Final Energy:  -117.09943023860504
    Total Energy =                       -117.0994302386050379
  Basis Set: (CC-PVTZ AUX)
    Blend: CC-PVTZ-RI
	 Reference Energy          =    -117.0994302386050379 [Eh]
	 Singles Energy            =      -0.0000000000000000 [Eh]
	 Same-Spin Energy          =      -0.1224363377107526 [Eh]
	 Opposite-Spin Energy      =      -0.4417802574968038 [Eh]
	 Correlation Energy        =      -0.5642165952075564 [Eh]
	 Total Energy              =    -117.6636468338125923 [Eh]
	 SCS Total Energy          =    -117.6703786601714512 [Eh]
    Molecular point group: cs
  Basis Set: CC-PVTZ
    Blend: CC-PVTZ
  Basis Set: (CC-PVTZ AUX)
    Blend: CC-PVTZ-JKFIT
  @DF-RHF Final Energy:  -117.09943023853131
    Total Energy =                       -117.0994302385313119
  Basis Set: (CC-PVTZ AUX)
  @DF-RHF Final Energy:  -117.09943023853131
    Total Energy =                       -117.0994302385313119
  @DF-RHF Final Energy:  -117.09943261774085
    Total Energy =                       -117.0994326177408453
  @DF-RHF Final Energy:  -117.09942661667375
    Total Energy =                       -117.0994266166737532
  @DF-RHF Final Energy:  -117.09943564733145
    Total Energy =                       -117.0994356473314468
  @DF-RHF Final Energy:  -117.09942310123509
    Total Energy =                       -117.0994231012350895
  @DF-RHF Final Energy:  -117.09942279096454
    Total Energy =                       -117.0994227909645389
  @DF-RHF Final Energy:  -117.09943564891523
    Total Energy =                       -117.0994356489152324
  @DF-RHF Final Energy:  -117.09943078253401
    Total Energy =                       -117.0994307825340144
  @DF-RHF Final Energy:  -117.09942809346239
    Total Energy =                       -117.0994280934623930
  @DF-RHF Final Energy:  -117.09943128355309
    Total Energy =                       -117.0994312835530877
  @DF-RHF Final Energy:  -117.09942670807645
    Total Energy =                       -117.0994267080764502
  @DF-RHF Final Energy:  -117.09942644262253
    Total Energy =                       -117.0994264426225300
  @DF-RHF Final Energy:  -117.09943144774459
    Total Energy =                       -117.0994314477445926
  @DF-RHF Final Energy:  -117.09945741927964
    Total Energy =                       -117.0994574192796449
  @DF-RHF Final Energy:  -117.09940032048195
    Total Energy =                       -117.0994003204819478
  @DF-RHF Final Energy:  -117.09947973154773
    Total Energy =                       -117.0994797315477314
  @DF-RHF Final Energy:  -117.09937765600512
    Total Energy =                       -117.0993776560051174
  @DF-RHF Final Energy:  -117.09934243316934
    Total Energy =                       -117.0993424331693404
  @DF-RHF Final Energy:  -117.09951098316395
    Total Energy =                       -117.0995109831639525
  @DF-RHF Final Energy:  -117.09937013470207
    Total Energy =                       -117.0993701347020703
  @DF-RHF Final Energy:  -117.09948709283930
    Total Energy =                       -117.0994870928392970
  @DF-RHF Final Energy:  -117.09951090780201
    Total Energy =                       -117.0995109078020135
  @DF-RHF Final Energy:  -117.09934250864485
    Total Energy =                       -117.0993425086448525
  @DF-RHF Final Energy:  -117.09934246261142
    Total Energy =                       -117.0993424626114177
  @DF-RHF Final Energy:  -117.09951095378541
    Total Energy =                       -117.0995109537854120
  @DF-RHF Final Energy:  -117.09942821430315
    Total Energy =                       -117.0994282143031455
  @DF-RHF Final Energy:  -117.09942799854448
    Total Energy =                       -117.0994279985444848
  @DF-RHF Final Energy:  -117.09942731216341
    Total Energy =                       -117.0994273121634137
  @DF-RHF Final Energy:  -117.09942935146620
    Total Energy =                       -117.0994293514661990
  @DF-RHF Final Energy:  -117.09942804719367
    Total Energy =                       -117.0994280471936690
  @DF-RHF Final Energy:  -117.09942817432065
    Total Energy =                       -117.0994281743206500
  @DF-RHF Final Energy:  -117.09942792540070
    Total Energy =                       -117.0994279254007040
  @DF-RHF Final Energy:  -117.09942955496456
    Total Energy =                       -117.0994295549645585
    Molecular point group: c1
  Charge       = 0
  Multiplicity = 1
  Basis Set: CC-PVTZ
    Blend: CC-PVTZ
  Basis Set: (CC-PVTZ AUX)
    Blend: CC-PVTZ-JKFIT

    Orbital Energies [Eh]
    ---------------------

    Doubly Occupied:

       1A    -11.227235     2A    -11.226259     3A    -11.226254
       4A     -1.124545     5A     -0.813841     6A     -0.813835
       7A     -0.662642     8A     -0.621734     9A     -0.510052
      10A     -0.510036    11A     -0.417108    12A     -0.417101

  @DF-RHF Final Energy:  -117.09942765396559

   => Energetics <=

    Nuclear Repulsion Energy =             75.2814718714328848
    One-Electron Energy =                -305.6205162822503780
    Two-Electron Energy =                 113.2396167568519161
    Total Energy =                       -117.0994276539655914

  Dipole Moment: [D]
     X:    -0.0001      Y:    -0.0001      Z:    -0.0007     Total:     0.0007

  Basis Set: (CC-PVTZ AUX)
    Blend: CC-PVTZ-RI
    Molecular point group: c1

    Geometry (in Angstrom), charge = 0, multiplicity = 1:

       Center              X                  Y                   Z               Mass
    ------------   -----------------  -----------------  -----------------  -----------------
         C            0.321531939855     0.813261460475     0.000000000000    12.000000000000
         C           -0.865048060145    -0.128168539525     0.000000000000    12.000000000000
         C            0.543531939855    -0.685078539525     0.000000000000    12.000000000000
         H            0.537951939855     1.360691460475    -0.920390000000     1.007825032230
         H            0.537951939855     1.360691460475     0.920390000000     1.007825032230
         H           -1.447418060145    -0.214488539525     0.919737951237     1.007825032230
         H           -1.447418060145    -0.214488539525    -0.920942048763     1.007825032230
         H            0.907830274543    -1.145679013968    -0.919767951237     1.007825032230
         H            0.910913605168    -1.146898065083     0.920972048763     1.007825032230

  Basis Set: CC-PVTZ
    Blend: CC-PVTZ
  Basis Set: (CC-PVTZ AUX)
    Blend: CC-PVTZ-JKFIT
  Basis Set: (CC-PVTZ AUX)
    Blend: CC-PVTZ-JKFIT
	 Reference Energy          =    -117.0994276539655914 [Eh]
	 Singles Energy            =      -0.0000000000000000 [Eh]
	 Same-Spin Energy          =      -0.1224363472328653 [Eh]
	 Opposite-Spin Energy      =      -0.4417803408754312 [Eh]
	 Correlation Energy        =      -0.5642166881082965 [Eh]
	 Total Energy              =    -117.6636443420738942 [Eh]

	 ================> DF-SCS-MP2 Energies <==================
	-----------------------------------------------------------
	 SCS Same-Spin Scale       =       0.3333333333333333 [-]
	 SCS Opposite-Spin Scale   =       1.2000000000000000 [-]
	 SCS Same-Spin Energy      =      -0.0408121157442884 [Eh]
	 SCS Opposite-Spin Energy  =      -0.5301364090505174 [Eh]
	 SCS Correlation Energy    =      -0.5709485247948058 [Eh]
	 SCS Total Energy          =    -117.6703761787603923 [Eh]
	-----------------------------------------------------------

  -Total Gradient:
     Atom            X                  Y                   Z
    ------   -----------------  -----------------  -----------------
       1        0.000414902558     0.001050581328     0.000006660994
       2       -0.001092474254    -0.000158739707     0.000425351028
       3        0.000700445829    -0.000874760377    -0.001185747966
       4        0.002584593953     0.006539511048    -0.010016025525
       5        0.002588782027     0.006552626484     0.010012820005
       6       -0.006803860753    -0.001033163179     0.009733720744
       7       -0.007138104695    -0.001038054281    -0.010275050620
       8        0.004015476139    -0.005173166604    -0.009359170989
       9        0.004730239197    -0.005864834712     0.010657442329

  Vibration                       7                   8                   9
  Freq [cm^-1]                 827.2733            827.2896            880.7289
  Irrep                          App                 App                  Ap
  Reduced mass [u]              1.0228              1.0228              4.5085
  Force const [mDyne/A]         0.4124              0.4124              2.0605

  Vibration                       10                  11                  12
  Freq [cm^-1]                 880.7608            937.0484           1116.7977
  Irrep                           Ap                 App                  Ap
  Reduced mass [u]              4.5087              1.0440              1.1948
  Force const [mDyne/A]         2.0607              0.5401              0.8780

  Vibration                       13                  14                  15
  Freq [cm^-1]                1116.8107           1141.0932           1199.7531
  Irrep                           Ap                  Ap                  Ap
  Reduced mass [u]              1.1948              1.4254              2.9754
  Force const [mDyne/A]         0.8781              1.0936              2.5234

  Vibration                       16                  17                  18
  Freq [cm^-1]                1210.9177           1247.5655           1247.5656
  Irrep                          App                 App                 App
  Reduced mass [u]              1.0078              1.4471              1.4471
  Force const [mDyne/A]         0.8707              1.3270              1.3270

  Vibration                       19                  20                  21
  Freq [cm^-1]                1513.6716           1513.6866           1554.2359
  Irrep                           Ap                  Ap                  Ap
  Reduced mass [u]              1.0896              1.0896              1.2636
  Force const [mDyne/A]         1.4709              1.4709              1.7984

  Vibration                       22                  23                  24
  Freq [cm^-1]                3046.0563           3046.0762           3054.2544
  Irrep                           Ap                  Ap                  Ap
  Reduced mass [u]              1.0495              1.0495              1.0635
  Force const [mDyne/A]         5.7375              5.7376              5.8451

  Vibration                       25                  26                  27
  Freq [cm^-1]                3113.7781           3113.7890           3133.2213
  Irrep                          App                 App                 App
  Reduced mass [u]              1.1206              1.1206              1.1162
  Force const [mDyne/A]         6.4016              6.4017              6.4560

  ==> Thermochemistry Components <==

  Entropy, S
    Electronic S            0.000 [cal/(mol K)]        0.000 [J/(mol K)]       0.00000000 [mEh/K] (multiplicity = 1)
    Translational S        37.135 [cal/(mol K)]      155.375 [J/(mol K)]       0.05917914 [mEh/K] (mol. weight = 42.0470 [u], P = 101325.00 [Pa])
    Rotational S           21.699 [cal/(mol K)]       90.789 [J/(mol K)]       0.03457982 [mEh/K] (symmetry no. = 1)
    Vibrational S           1.144 [cal/(mol K)]        4.786 [J/(mol K)]       0.00182298 [mEh/K]
  Total S                  59.979 [cal/(mol K)]      250.950 [J/(mol K)]       0.09558194 [mEh/K]
  Correction S              0.000 [cal/(mol K)]        0.000 [J/(mol K)]       0.00000000 [mEh/K]

  Constant volume heat capacity, Cv
    Electronic Cv           0.000 [cal/(mol K)]        0.000 [J/(mol K)]       0.00000000 [mEh/K]
    Translational Cv        2.981 [cal/(mol K)]       12.472 [J/(mol K)]       0.00475022 [mEh/K]
    Rotational Cv           2.981 [cal/(mol K)]       12.472 [J/(mol K)]       0.00475022 [mEh/K]
    Vibrational Cv          4.457 [cal/(mol K)]       18.649 [J/(mol K)]       0.00710306 [mEh/K]
  Total Cv                 10.419 [cal/(mol K)]       43.592 [J/(mol K)]       0.01660349 [mEh/K]
  Correction Cv             0.000 [cal/(mol K)]        0.000 [J/(mol K)]       0.00000000 [mEh/K]

  Constant pressure heat capacity, Cp
    Electronic Cp           0.000 [cal/(mol K)]        0.000 [J/(mol K)]       0.00000000 [mEh/K]
    Translational Cp        4.968 [cal/(mol K)]       20.786 [J/(mol K)]       0.00791703 [mEh/K]
    Rotational Cp           2.981 [cal/(mol K)]       12.472 [J/(mol K)]       0.00475022 [mEh/K]
    Vibrational Cp          4.457 [cal/(mol K)]       18.649 [J/(mol K)]       0.00710306 [mEh/K]
  Total Cp                 12.406 [cal/(mol K)]       51.907 [J/(mol K)]       0.01977030 [mEh/K]
  Correction Cp             0.000 [cal/(mol K)]        0.000 [J/(mol K)]       0.00000000 [mEh/K]

  ==> Thermochemistry Energy Analysis <==

  Raw electronic energy, E0
  Total E0, Electronic energy at well bottom at 0 [K]                 -117.66364683 [Eh]

  Zero-point energy, ZPE_vib = Sum_i nu_i / 2
    Electronic ZPE          0.000 [kcal/mol]        0.000 [kJ/mol]       0.00000000 [Eh]
    Translational ZPE       0.000 [kcal/mol]        0.000 [kJ/mol]       0.00000000 [Eh]
    Rotational ZPE          0.000 [kcal/mol]        0.000 [kJ/mol]       0.00000000 [Eh]
    Vibrational ZPE        51.068 [kcal/mol]      213.667 [kJ/mol]       0.08138156 [Eh]       17861.187 [cm^-1]
  Correction ZPE           51.068 [kcal/mol]      213.667 [kJ/mol]       0.08138156 [Eh]       17861.187 [cm^-1]
  Total ZPE, Electronic energy at 0 [K]                               -117.58226527 [Eh]

  Thermal Energy, E (includes ZPE)
    Electronic E            0.000 [kcal/mol]        0.000 [kJ/mol]       0.00000000 [Eh]
    Translational E         0.889 [kcal/mol]        3.718 [kJ/mol]       0.00141628 [Eh]
    Rotational E            0.889 [kcal/mol]        3.718 [kJ/mol]       0.00141628 [Eh]
    Vibrational E          51.348 [kcal/mol]      214.839 [kJ/mol]       0.08182795 [Eh]
  Correction E             53.125 [kcal/mol]      222.276 [kJ/mol]       0.08466050 [Eh]
  Total E, Electronic energy at  298.15 [K]                           -117.57898633 [Eh]

  Enthalpy, H_trans = E_trans + k_B * T
    Electronic H            0.000 [kcal/mol]        0.000 [kJ/mol]       0.00000000 [Eh]
    Translational H         1.481 [kcal/mol]        6.197 [kJ/mol]       0.00236046 [Eh]
    Rotational H            0.889 [kcal/mol]        3.718 [kJ/mol]       0.00141628 [Eh]
    Vibrational H          51.348 [kcal/mol]      214.839 [kJ/mol]       0.08182795 [Eh]
  Correction H             53.718 [kcal/mol]      224.755 [kJ/mol]       0.08560469 [Eh]
  Total H, Enthalpy at  298.15 [K]                                    -117.57804214 [Eh]

  Gibbs free energy, G = H - T * S
    Electronic G            0.000 [kcal/mol]        0.000 [kJ/mol]       0.00000000 [Eh]
    Translational G        -9.591 [kcal/mol]      -40.128 [kJ/mol]      -0.01528380 [Eh]
    Rotational G           -5.581 [kcal/mol]      -23.350 [kJ/mol]      -0.00889370 [Eh]
    Vibrational G          51.007 [kcal/mol]      213.412 [kJ/mol]       0.08128443 [Eh]
  Correction G             35.835 [kcal/mol]      149.934 [kJ/mol]       0.05710693 [Eh]
  Total G, Free enthalpy at  298.15 [K]                               -117.60653990 [Eh]

*** Psi4 exiting successfully. Buy a developer a beer!
