                               Psi4 1.3.2 release

  ==> Input File <==

--------------------------------------------------------------------------
set basis  cc-pVDZ
molecule {
0 1
   C       -1.22151       -0.69325        0.00000
   C       -1.21114        0.71122        0.00000
   C       -0.01037       -1.40452        0.00000
   C        0.01037        1.40452        0.00000
   C        1.21114       -0.71122        0.00000
   C        1.22151        0.69325        0.00000
   H       -2.17311       -1.23332        0.00000
   H       -2.15464        1.26533        0.00000
   H       -0.01848       -2.49865        0.00000
   H        0.01848        2.49865        0.00000
   H        2.15464       -1.26533        0.00000
   H        2.17311        1.23332        0.00000
}
energy('m06-2x')
frequencies('m06-2x')
--------------------------------------------------------------------------

    Molecular point group: c2h
  Charge       = 0
  Multiplicity = 1
  Basis Set: CC-PVDZ
    Blend: CC-PVDZ
  Basis Set: (CC-PVDZ AUX)
    Blend: CC-PVDZ-JKFIT
  @DF-RKS Final Energy:  -232.16163096648995
    Total Energy =                       -232.1616309664899802
    Molecular point group: c2h
  Basis Set: CC-PVDZ
    Blend: CC-PVDZ
  Basis Set: (CC-PVDZ AUX)
    Blend: CC-PVDZ-JKFIT
  @DF-RKS Final Energy:  -232.16163096732043
    Total Energy =                       -232.1616309673204341
  Basis Set: CC-PVDZ
    Blend: CC-PVDZ
  Basis Set: (CC-PVDZ AUX)
    Blend: CC-PVDZ-JKFIT
  Basis Set: CC-PVDZ
    Blend: CC-PVDZ
  Basis Set: (CC-PVDZ AUX)
    Blend: CC-PVDZ-JKFIT
  @DF-RKS Final Energy:  -232.16163096756830
    Total Energy =                       -232.1616309675682999
  Basis Set: CC-PVDZ
  @DF-RKS Final Energy:  -232.16173376403040
    Total Energy =                       -232.1617337640303731
  @DF-RKS Final Energy:  -232.16176441420765
    Total Energy =                       -232.1617644142076529
  @DF-RKS Final Energy:  -232.16172725570738
    Total Energy =                       -232.1617272557073761
  @DF-RKS Final Energy:  -232.16169272891776
    Total Energy =                       -232.1616927289177568
  @DF-RKS Final Energy:  -232.16172006614579
    Total Energy =                       -232.1617200661457900
  @DF-RKS Final Energy:  -232.16173505640091
    Total Energy =                       -232.1617350564009143
  @DF-RKS Final Energy:  -232.16172764730044
    Total Energy =                       -232.1617276473004097
  @DF-RKS Final Energy:  -232.16171842106959
    Total Energy =                       -232.1617184210696223
  @DF-RKS Final Energy:  -232.16167752854562
    Total Energy =                       -232.1616775285455958
  @DF-RKS Final Energy:  -232.16171670360455
    Total Energy =                       -232.1617167036045544
  @DF-RKS Final Energy:  -232.16163965143355
    Total Energy =                       -232.1616396514335463
  @DF-RKS Final Energy:  -232.16166706962898
    Total Energy =                       -232.1616670696289759
  @DF-RKS Final Energy:  -232.16172927905293
    Total Energy =                       -232.1617292790529632
  @DF-RKS Final Energy:  -232.16176312216660
    Total Energy =                       -232.1617631221666045
  @DF-RKS Final Energy:  -232.16171740406207
    Total Energy =                       -232.1617174040621023
  @DF-RKS Final Energy:  -232.16172041900222
    Total Energy =                       -232.1617204190022221
  @DF-RKS Final Energy:  -232.16171386321952
    Total Energy =                       -232.1617138632195179
  @DF-RKS Final Energy:  -232.16166647788933
    Total Energy =                       -232.1616664778892982
  @DF-RKS Final Energy:  -232.16163066686619
    Total Energy =                       -232.1616306668662162
  @DF-RKS Final Energy:  -232.16163054120528
    Total Energy =                       -232.1616305412052839
  @DF-RKS Final Energy:  -232.16163063995219
    Total Energy =                       -232.1616306399521648
  @DF-RKS Final Energy:  -232.16163051412946
    Total Energy =                       -232.1616305141294561
  @DF-RKS Final Energy:  -232.16163076508872
    Total Energy =                       -232.1616307650887165
  @DF-RKS Final Energy:  -232.16163076266344
    Total Energy =                       -232.1616307626634352
  @DF-RKS Final Energy:  -232.16163073327556
    Total Energy =                       -232.1616307332755582
  @DF-RKS Final Energy:  -232.16163060337530
    Total Energy =                       -232.1616306033753290
  @DF-RKS Final Energy:  -232.16163059853375
    Total Energy =                       -232.1616305985337760
  @DF-RKS Final Energy:  -232.16162960270978
    Total Energy =                       -232.1616296027098088
  @DF-RKS Final Energy:  -232.16163038996831
    Total Energy =                       -232.1616303899683373
  @DF-RKS Final Energy:  -232.16162939073314
    Total Energy =                       -232.1616293907331396
  @DF-RKS Final Energy:  -232.16163038168213
    Total Energy =                       -232.1616303816821585
  @DF-RKS Final Energy:  -232.16162811585539
    Total Energy =                       -232.1616281158553932
  @DF-RKS Final Energy:  -232.16162877870599
    Total Energy =                       -232.1616287787059889
  @DF-RKS Final Energy:  -232.16162732477699
    Total Energy =                       -232.1616273247769868
  @DF-RKS Final Energy:  -232.16162955177907
    Total Energy =                       -232.1616295517791002
  Basis Set: (CC-PVDZ AUX)
    Blend: CC-PVDZ-JKFIT
  Basis Set: CC-PVDZ
    Blend: CC-PVDZ
  Basis Set: (CC-PVDZ AUX)
    Blend: CC-PVDZ-JKFIT
  @DF-RKS Final Energy:  -232.16162829441123
    Total Energy =                       -232.1616282944112299
  Basis Set: CC-PVDZ
    Blend: CC-PVDZ
  Basis Set: (CC-PVDZ AUX)
    Blend: CC-PVDZ-JKFIT
    Molecular point group: cs
  Charge       = 0
  Multiplicity = 1
  Basis Set: CC-PVDZ
    Blend: CC-PVDZ
  Basis Set: (CC-PVDZ AUX)
    Blend: CC-PVDZ-JKFIT

    Orbital Energies [Eh]
    ---------------------

    Doubly Occupied:

       1Ap   -10.555712     2Ap   -10.555410     3Ap   -10.555384
       4Ap   -10.554720     5Ap   -10.554701     6Ap   -10.554373
       7Ap    -0.949849     8Ap    -0.835717     9Ap    -0.835712
      10Ap    -0.679575    11Ap    -0.679561    12Ap    -0.591134
      13Ap    -0.529773    14Ap    -0.504737    15Ap    -0.481805
      16Ap    -0.481791     1App   -0.431216    17Ap    -0.397643
      18Ap    -0.397639     2App   -0.302418     3App   -0.302409

  @DF-RKS Final Energy:  -232.16162858074358

   => Energetics <=

    Nuclear Repulsion Energy =            202.0133184684007119
    One-Electron Energy =                -711.1178477763323826
    Two-Electron Energy =                 293.6638662924269170
    DFT Exchange-Correlation Energy =     -16.7209655652388101
    Empirical Dispersion Energy =           0.0000000000000000
    VV10 Nonlocal Energy =                  0.0000000000000000
    Total Energy =                       -232.1616285807435531

  Dipole Moment: [D]
     X:    -0.0009      Y:    -0.0014      Z:     0.0000     Total:     0.0017

    Molecular point group: cs

    Geometry (in Angstrom), charge = 0, multiplicity = 1:

       Center              X                  Y                   Z               Mass
    ------------   -----------------  -----------------  -----------------  -----------------
         C           -1.221510000000    -0.693250000000     0.000000000000    12.000000000000
         C           -1.211140000000     0.711220000000     0.000000000000    12.000000000000
         C           -0.010370000000    -1.404520000000     0.000000000000    12.000000000000
         C            0.010370000000     1.404520000000     0.000000000000    12.000000000000
         C            1.211140000000    -0.711220000000     0.000000000000    12.000000000000
         C            1.221510000000     0.693250000000     0.000000000000    12.000000000000
         H           -2.173110000000    -1.233320000000     0.000000000000     1.007825032230
         H           -2.154640000000     1.264012202829     0.000000000000     1.007825032230
         H           -0.018480000000    -2.497332202829     0.000000000000     1.007825032230
         H            0.018480000000     2.499967797171     0.000000000000     1.007825032230
         H            2.154640000000    -1.266647797171     0.000000000000     1.007825032230
         H            2.173110000000     1.233320000000     0.000000000000     1.007825032230

  Basis Set: CC-PVDZ
    Blend: CC-PVDZ
  Basis Set: (CC-PVDZ AUX)
    Blend: CC-PVDZ-JKFIT

  -Total Gradient:
     Atom            X                  Y                   Z
    ------   -----------------  -----------------  -----------------
       1       -0.006482289381    -0.003612556289     0.000000000000
       2       -0.006649231654     0.004053117362     0.000000000000
       3       -0.000002428749    -0.008262851557     0.000000000000
       4        0.000069377869     0.006549754280     0.000000000000
       5        0.006078685872    -0.003447365330     0.000000000000
       6        0.006323673685     0.003611083259     0.000000000000
       7       -0.002041551817    -0.001206356386     0.000000000000
       8       -0.001690875590     0.000945937674     0.000000000000
       9       -0.000005107546    -0.001474235843     0.000000000000
      10        0.000006499919     0.003260940740     0.000000000000
      11        0.002346018323    -0.001611177487     0.000000000000
      12        0.002049045697     0.001199542493     0.000000000000

  Vibration                       7                   8                   9
  Freq [cm^-1]                 428.4245            430.1080            592.4412
  Irrep                           Au                  Au                  Ag
  Reduced mass [u]              2.8633              2.8893              5.0714
  Force const [mDyne/A]         0.3096              0.3149              1.0487

  Vibration                       10                  11                  12
  Freq [cm^-1]                 598.1365            710.4146            731.8221
  Irrep                           Ag                  Au                  Bg
  Reduced mass [u]              5.8668              1.0849              3.4950
  Force const [mDyne/A]         1.2367              0.3226              1.1028

  Vibration                       13                  14                  15
  Freq [cm^-1]                 885.5153            888.8445            964.7713
  Irrep                           Bg                  Bg                  Ag
  Reduced mass [u]              1.2480              1.2479              1.9540
  Force const [mDyne/A]         0.5766              0.5809              1.0716

  Vibration                       16                  17                  18
  Freq [cm^-1]                1004.1075           1006.8364           1009.5220
  Irrep                           Bu                  Au                  Au
  Reduced mass [u]              6.5543              1.3766              1.3708
  Force const [mDyne/A]         3.8935              0.8222              0.8231

  Vibration                       19                  20                  21
  Freq [cm^-1]                1038.8289           1054.3022           1055.2340
  Irrep                           Bg                  Bu                  Bu
  Reduced mass [u]              1.2665              1.6293              1.6327
  Force const [mDyne/A]         0.8053              1.0671              1.0712

  Vibration                       22                  23                  24
  Freq [cm^-1]                1070.1648           1141.8536           1218.7124
  Irrep                           Ag                  Bu                  Ag
  Reduced mass [u]              2.0758              1.1563              1.1322
  Force const [mDyne/A]         1.4007              0.8882              0.9908

  Vibration                       25                  26                  27
  Freq [cm^-1]                1301.7338           1336.2189           1498.6462
  Irrep                           Bu                  Ag                  Bu
  Reduced mass [u]              4.7461              1.2572              2.1170
  Force const [mDyne/A]         4.7384              1.3225              2.8013

  Vibration                       28                  29                  30
  Freq [cm^-1]                1498.9463           1632.5395           1671.4872
  Irrep                           Bu                  Ag                  Ag
  Reduced mass [u]              2.1187              5.9789              4.4466
  Force const [mDyne/A]         2.8047              9.3885              7.3195

  Vibration                       31                  32                  33
  Freq [cm^-1]                3174.9015           3179.5801           3187.5887
  Irrep                           Bu                  Ag                  Ag
  Reduced mass [u]              1.0834              1.0895              1.0867
  Force const [mDyne/A]         6.4343              6.4894              6.5057

  Vibration                       34                  35                  36
  Freq [cm^-1]                3199.8117           3199.9200           3210.5995
  Irrep                           Bu                  Bu                  Ag
  Reduced mass [u]              1.0964              1.0964              1.0998
  Force const [mDyne/A]         6.6140              6.6145              6.6796

  ==> Thermochemistry Components <==

  Entropy, S
    Electronic S            0.000 [cal/(mol K)]        0.000 [J/(mol K)]       0.00000000 [mEh/K] (multiplicity = 1)
    Translational S        38.979 [cal/(mol K)]      163.089 [J/(mol K)]       0.06211726 [mEh/K] (mol. weight = 78.0470 [u], P = 101325.00 [Pa])
    Rotational S           24.318 [cal/(mol K)]      101.746 [J/(mol K)]       0.03875307 [mEh/K] (symmetry no. = 2)
    Vibrational S           4.355 [cal/(mol K)]       18.220 [J/(mol K)]       0.00693970 [mEh/K]
  Total S                  67.652 [cal/(mol K)]      283.055 [J/(mol K)]       0.10781004 [mEh/K]
  Correction S              0.000 [cal/(mol K)]        0.000 [J/(mol K)]       0.00000000 [mEh/K]

  Constant volume heat capacity, Cv
    Electronic Cv           0.000 [cal/(mol K)]        0.000 [J/(mol K)]       0.00000000 [mEh/K]
    Translational Cv        2.981 [cal/(mol K)]       12.472 [J/(mol K)]       0.00475022 [mEh/K]
    Rotational Cv           2.981 [cal/(mol K)]       12.472 [J/(mol K)]       0.00475022 [mEh/K]
    Vibrational Cv         11.279 [cal/(mol K)]       47.191 [J/(mol K)]       0.01797421 [mEh/K]
  Total Cv                 17.241 [cal/(mol K)]       72.135 [J/(mol K)]       0.02747464 [mEh/K]
  Correction Cv             0.000 [cal/(mol K)]        0.000 [J/(mol K)]       0.00000000 [mEh/K]

  Constant pressure heat capacity, Cp
    Electronic Cp           0.000 [cal/(mol K)]        0.000 [J/(mol K)]       0.00000000 [mEh/K]
    Translational Cp        4.968 [cal/(mol K)]       20.786 [J/(mol K)]       0.00791703 [mEh/K]
    Rotational Cp           2.981 [cal/(mol K)]       12.472 [J/(mol K)]       0.00475022 [mEh/K]
    Vibrational Cp         11.279 [cal/(mol K)]       47.191 [J/(mol K)]       0.01797421 [mEh/K]
  Total Cp                 19.228 [cal/(mol K)]       80.449 [J/(mol K)]       0.03064145 [mEh/K]
  Correction Cp             0.000 [cal/(mol K)]        0.000 [J/(mol K)]       0.00000000 [mEh/K]

  ==> Thermochemistry Energy Analysis <==

  Raw electronic energy, E0
  Total E0, Electronic energy at well bottom at 0 [K]                 -232.16163097 [Eh]

  Zero-point energy, ZPE_vib = Sum_i nu_i / 2
    Electronic ZPE          0.000 [kcal/mol]        0.000 [kJ/mol]       0.00000000 [Eh]
    Translational ZPE       0.000 [kcal/mol]        0.000 [kJ/mol]       0.00000000 [Eh]
    Rotational ZPE          0.000 [kcal/mol]        0.000 [kJ/mol]       0.00000000 [Eh]
    Vibrational ZPE        62.790 [kcal/mol]      262.712 [kJ/mol]       0.10006171 [Eh]       21961.006 [cm^-1]
  Correction ZPE           62.790 [kcal/mol]      262.712 [kJ/mol]       0.10006171 [Eh]       21961.006 [cm^-1]
  Total ZPE, Electronic energy at 0 [K]                               -232.06156926 [Eh]

  Thermal Energy, E (includes ZPE)
    Electronic E            0.000 [kcal/mol]        0.000 [kJ/mol]       0.00000000 [Eh]
    Translational E         0.889 [kcal/mol]        3.718 [kJ/mol]       0.00141628 [Eh]
    Rotational E            0.889 [kcal/mol]        3.718 [kJ/mol]       0.00141628 [Eh]
    Vibrational E          63.764 [kcal/mol]      266.790 [kJ/mol]       0.10161485 [Eh]
  Correction E             65.542 [kcal/mol]      274.227 [kJ/mol]       0.10444740 [Eh]
  Total E, Electronic energy at  298.15 [K]                           -232.05718357 [Eh]

  Enthalpy, H_trans = E_trans + k_B * T
    Electronic H            0.000 [kcal/mol]        0.000 [kJ/mol]       0.00000000 [Eh]
    Translational H         1.481 [kcal/mol]        6.197 [kJ/mol]       0.00236046 [Eh]
    Rotational H            0.889 [kcal/mol]        3.718 [kJ/mol]       0.00141628 [Eh]
    Vibrational H          63.764 [kcal/mol]      266.790 [kJ/mol]       0.10161485 [Eh]
  Correction H             66.134 [kcal/mol]      276.706 [kJ/mol]       0.10539159 [Eh]
  Total H, Enthalpy at  298.15 [K]                                    -232.05623938 [Eh]

  Gibbs free energy, G = H - T * S
    Electronic G            0.000 [kcal/mol]        0.000 [kJ/mol]       0.00000000 [Eh]
    Translational G       -10.140 [kcal/mol]      -42.428 [kJ/mol]      -0.01615980 [Eh]
    Rotational G           -6.362 [kcal/mol]      -26.617 [kJ/mol]      -0.01013795 [Eh]
    Vibrational G          62.466 [kcal/mol]      261.357 [kJ/mol]       0.09954577 [Eh]
  Correction G             45.964 [kcal/mol]      192.313 [kJ/mol]       0.07324802 [Eh]
  Total G, Free enthalpy at  298.15 [K]                               -232.08838294 [Eh]

*** Psi4 exiting successfully. Buy a developer a beer!
