                               Psi4 1.3.2 release

  ==> Input File <==

--------------------------------------------------------------------------
set basis  6-311++G**
molecule {
0 1
   O        0.00000        0.00000        0.49152
   C        0.00000        0.00000       -0.65516
}
energy('scf')
frequencies('scf')
--------------------------------------------------------------------------

    Molecular point group: c2v
  Charge       = 0
  Multiplicity = 1
  Basis Set: 6-311++G**
    Blend: 6-311++G**
  Basis Set: (6-311++G** AUX)
    Blend: AUG-CC-PVTZ-JKFIT
  @DF-RHF Final Energy:  -112.76666103119868
    Total Energy =                       -112.7666610311986801
    Molecular point group: c2v
  Basis Set: 6-311++G**
    Blend: 6-311++G**
  Basis Set: (6-311++G** AUX)
    Blend: AUG-CC-PVTZ-JKFIT
  @DF-RHF Final Energy:  -112.76666103144726
    Total Energy =                       -112.7666610314472564
  Basis Set: 6-311++G**
    Blend: 6-311++G**
  Basis Set: (6-311++G** AUX)
    Blend: AUG-CC-PVTZ-JKFIT

  -Total Gradient:
     Atom            X                  Y                   Z
    ------   -----------------  -----------------  -----------------
       1        0.000000000000     0.000000000000     0.104372830002
       2        0.000000000000    -0.000000000000    -0.104372830003

  Charge       = 0
  Multiplicity = 1
  Basis Set: 6-311++G**
    Blend: 6-311++G**
  Basis Set: (6-311++G** AUX)
    Blend: AUG-CC-PVTZ-JKFIT

    Orbital Energies [Eh]
    ---------------------

    Doubly Occupied:

       1A1   -20.670786     2A1   -11.374478     3A1    -1.515152
       4A1    -0.805208     1B2    -0.633955     1B1    -0.633955
       5A1    -0.558083

  @DF-RHF Final Energy:  -112.76666103144726

   => Energetics <=

    Nuclear Repulsion Energy =             22.1513465937837957
    One-Electron Energy =                -197.4527835325503133
    Two-Electron Energy =                  62.5347759073192719
    Total Energy =                       -112.7666610314472564

  Dipole Moment: [D]
     X:     0.0000      Y:     0.0000      Z:    -0.4011     Total:     0.4011

    Molecular point group: c2v
  Basis Set: 6-311++G**
    Blend: 6-311++G**
  Basis Set: (6-311++G** AUX)
    Blend: AUG-CC-PVTZ-JKFIT
  Basis Set: (6-311++G** AUX)
    Blend: AUG-CC-PVTZ-JKFIT
    Molecular point group: c2v

    Geometry (in Angstrom), charge = 0, multiplicity = 1:

       Center              X                  Y                   Z               Mass
    ------------   -----------------  -----------------  -----------------  -----------------
         O            0.000000000000     0.000000000000     0.491523556581    15.994914619570
         C            0.000000000000     0.000000000000    -0.655156443419    12.000000000000

  Basis Set: 6-311++G**
    Blend: 6-311++G**
  Basis Set: (6-311++G** AUX)
    Blend: AUG-CC-PVTZ-JKFIT

  Vibration                       4                   5                   6
  Freq [cm^-1]                 430.8593            430.8593           2108.7295
  Irrep                                                                   A1
  Reduced mass [u]             13.4388             13.4388             13.4388
  Force const [mDyne/A]         1.4699              1.4699             35.2088

  IR activ [km/mol]             0.7540              0.7540             173.2378

  ==> Thermochemistry Components <==

  Entropy, S
    Electronic S            0.000 [cal/(mol K)]        0.000 [J/(mol K)]       0.00000000 [mEh/K] (multiplicity = 1)
    Translational S        35.923 [cal/(mol K)]      150.302 [J/(mol K)]       0.05724692 [mEh/K] (mol. weight = 27.9949 [u], P = 101325.00 [Pa])
    Rotational S           11.343 [cal/(mol K)]       47.458 [J/(mol K)]       0.01807582 [mEh/K] (symmetry no. = 1)
    Vibrational S           1.713 [cal/(mol K)]        7.165 [J/(mol K)]       0.00272911 [mEh/K]
  Total S                  48.978 [cal/(mol K)]      204.925 [J/(mol K)]       0.07805186 [mEh/K]
  Correction S              0.000 [cal/(mol K)]        0.000 [J/(mol K)]       0.00000000 [mEh/K]

  Constant volume heat capacity, Cv
    Electronic Cv           0.000 [cal/(mol K)]        0.000 [J/(mol K)]       0.00000000 [mEh/K]
    Translational Cv        2.981 [cal/(mol K)]       12.472 [J/(mol K)]       0.00475022 [mEh/K]
    Rotational Cv           1.987 [cal/(mol K)]        8.314 [J/(mol K)]       0.00316681 [mEh/K]
    Vibrational Cv          2.814 [cal/(mol K)]       11.773 [J/(mol K)]       0.00448421 [mEh/K]
  Total Cv                  7.782 [cal/(mol K)]       32.559 [J/(mol K)]       0.01240123 [mEh/K]
  Correction Cv             0.000 [cal/(mol K)]        0.000 [J/(mol K)]       0.00000000 [mEh/K]

  Constant pressure heat capacity, Cp
    Electronic Cp           0.000 [cal/(mol K)]        0.000 [J/(mol K)]       0.00000000 [mEh/K]
    Translational Cp        4.968 [cal/(mol K)]       20.786 [J/(mol K)]       0.00791703 [mEh/K]
    Rotational Cp           1.987 [cal/(mol K)]        8.314 [J/(mol K)]       0.00316681 [mEh/K]
    Vibrational Cp          2.814 [cal/(mol K)]       11.773 [J/(mol K)]       0.00448421 [mEh/K]
  Total Cp                  9.769 [cal/(mol K)]       40.874 [J/(mol K)]       0.01556804 [mEh/K]
  Correction Cp             0.000 [cal/(mol K)]        0.000 [J/(mol K)]       0.00000000 [mEh/K]

  ==> Thermochemistry Energy Analysis <==

  Raw electronic energy, E0
  Total E0, Electronic energy at well bottom at 0 [K]                 -112.76666103 [Eh]

  Zero-point energy, ZPE_vib = Sum_i nu_i / 2
    Electronic ZPE          0.000 [kcal/mol]        0.000 [kJ/mol]       0.00000000 [Eh]
    Translational ZPE       0.000 [kcal/mol]        0.000 [kJ/mol]       0.00000000 [Eh]
    Rotational ZPE          0.000 [kcal/mol]        0.000 [kJ/mol]       0.00000000 [Eh]
    Vibrational ZPE         4.246 [kcal/mol]       17.767 [kJ/mol]       0.00676718 [Eh]        1485.224 [cm^-1]
  Correction ZPE            4.246 [kcal/mol]       17.767 [kJ/mol]       0.00676718 [Eh]        1485.224 [cm^-1]
  Total ZPE, Electronic energy at 0 [K]                               -112.75989385 [Eh]

  Thermal Energy, E (includes ZPE)
    Electronic E            0.000 [kcal/mol]        0.000 [kJ/mol]       0.00000000 [Eh]
    Translational E         0.889 [kcal/mol]        3.718 [kJ/mol]       0.00141628 [Eh]
    Rotational E            0.592 [kcal/mol]        2.479 [kJ/mol]       0.00094418 [Eh]
    Vibrational E           4.599 [kcal/mol]       19.241 [kJ/mol]       0.00732860 [Eh]
  Correction E              6.080 [kcal/mol]       25.439 [kJ/mol]       0.00968906 [Eh]
  Total E, Electronic energy at  298.15 [K]                           -112.75697197 [Eh]

  Enthalpy, H_trans = E_trans + k_B * T
    Electronic H            0.000 [kcal/mol]        0.000 [kJ/mol]       0.00000000 [Eh]
    Translational H         1.481 [kcal/mol]        6.197 [kJ/mol]       0.00236046 [Eh]
    Rotational H            0.592 [kcal/mol]        2.479 [kJ/mol]       0.00094418 [Eh]
    Vibrational H           4.599 [kcal/mol]       19.241 [kJ/mol]       0.00732860 [Eh]
  Correction H              6.672 [kcal/mol]       27.918 [kJ/mol]       0.01063325 [Eh]
  Total H, Enthalpy at  298.15 [K]                                    -112.75602778 [Eh]

  Gibbs free energy, G = H - T * S
    Electronic G            0.000 [kcal/mol]        0.000 [kJ/mol]       0.00000000 [Eh]
    Translational G        -9.229 [kcal/mol]      -38.615 [kJ/mol]      -0.01470771 [Eh]
    Rotational G           -2.789 [kcal/mol]      -11.671 [kJ/mol]      -0.00444512 [Eh]
    Vibrational G           4.088 [kcal/mol]       17.105 [kJ/mol]       0.00651492 [Eh]
  Correction G             -7.930 [kcal/mol]      -33.181 [kJ/mol]      -0.01263791 [Eh]
  Total G, Free enthalpy at  298.15 [K]                               -112.77929894 [Eh]

*** Psi4 exiting successfully. Buy a developer a beer!
