                               Psi4 1.3.2 release

  ==> Input File <==

--------------------------------------------------------------------------
set basis  cc-pVTZ
molecule {
0 1
   O        0.00000        0.00000        0.49152
   C        0.00000        0.00000       -0.65516
}
energy('m06-2x')
frequencies('m06-2x')
--------------------------------------------------------------------------

    Molecular point group: c2v
  Charge       = 0
  Multiplicity = 1
  Basis Set: CC-PVTZ
    Blend: CC-PVTZ
  Basis Set: (CC-PVTZ AUX)
    Blend: CC-PVTZ-JKFIT
  @DF-RKS Final Energy:  -113.31742588177104
    Total Energy =                       -113.3174258817710438
    Molecular point group: c2v
  Basis Set: CC-PVTZ
    Blend: CC-PVTZ
  Basis Set: (CC-PVTZ AUX)
    Blend: CC-PVTZ-JKFIT
  @DF-RKS Final Energy:  -113.31742588201421
    Total Energy =                       -113.3174258820142057
  Basis Set: CC-PVTZ
    Blend: CC-PVTZ
  Basis Set: (CC-PVTZ AUX)
    Blend: CC-PVTZ-JKFIT
  Basis Set: CC-PVTZ
    Blend: CC-PVTZ
  Basis Set: (CC-PVTZ AUX)
    Blend: CC-PVTZ-JKFIT
  @DF-RKS Final Energy:  -113.31742588201421
    Total Energy =                       -113.3174258820142057
  Basis Set: CC-PVTZ
  @DF-RKS Final Energy:  -113.31753406407461
    Total Energy =                       -113.3175340640746072
  @DF-RKS Final Energy:  -113.31731358009529
    Total Energy =                       -113.3173135800952878
  Basis Set: (CC-PVTZ AUX)
    Blend: CC-PVTZ-JKFIT
  Basis Set: CC-PVTZ
    Blend: CC-PVTZ
  Basis Set: (CC-PVTZ AUX)
    Blend: CC-PVTZ-JKFIT
  @DF-RKS Final Energy:  -113.31742583344329
    Total Energy =                       -113.3174258334432949
  Basis Set: CC-PVTZ
    Blend: CC-PVTZ
  Basis Set: (CC-PVTZ AUX)
    Blend: CC-PVTZ-JKFIT
    Molecular point group: cs
  Charge       = 0
  Multiplicity = 1
  Basis Set: CC-PVTZ
    Blend: CC-PVTZ
  Basis Set: (CC-PVTZ AUX)
    Blend: CC-PVTZ-JKFIT

    Orbital Energies [Eh]
    ---------------------

    Doubly Occupied:

       1Ap   -19.735542     2Ap   -10.666436     3Ap    -1.281493
       4Ap    -0.672933     5Ap    -0.548791     1App   -0.548791
       6Ap    -0.451877

  @DF-RKS Final Energy:  -113.31742583343433

   => Energetics <=

    Nuclear Repulsion Energy =             22.1513379928885605
    One-Electron Energy =                -197.6173957361035605
    Two-Electron Energy =                  68.8077322512931744
    DFT Exchange-Correlation Energy =      -6.6591003415125041
    Empirical Dispersion Energy =           0.0000000000000000
    VV10 Nonlocal Energy =                  0.0000000000000000
    Total Energy =                       -113.3174258334343278

  Dipole Moment: [D]
     X:     0.0000      Y:     0.0000      Z:    -0.0495     Total:     0.0495

    Molecular point group: cs

    Geometry (in Angstrom), charge = 0, multiplicity = 1:

       Center              X                  Y                   Z               Mass
    ------------   -----------------  -----------------  -----------------  -----------------
         O            0.000000000000    -0.000433142923     0.491523556581    15.994914619570
         C            0.000000000000     0.000577340340    -0.655156443419    12.000000000000

  Basis Set: CC-PVTZ
    Blend: CC-PVTZ
  Basis Set: (CC-PVTZ AUX)
    Blend: CC-PVTZ-JKFIT

  -Total Gradient:
     Atom            X                  Y                   Z
    ------   -----------------  -----------------  -----------------
       1        0.000000000000    -0.000050806484     0.057654373502
       2        0.000000000000     0.000050864556    -0.057720271824

  Vibration                       4                   5                   6
  Freq [cm^-1]                 320.3315            320.3315           2086.0090
  Irrep                           B2                  B1                  A1
  Reduced mass [u]             13.4388             13.4388             13.4388
  Force const [mDyne/A]         0.8125              0.8125             34.4542

  ==> Thermochemistry Components <==

  Entropy, S
    Electronic S            0.000 [cal/(mol K)]        0.000 [J/(mol K)]       0.00000000 [mEh/K] (multiplicity = 1)
    Translational S        35.923 [cal/(mol K)]      150.302 [J/(mol K)]       0.05724692 [mEh/K] (mol. weight = 27.9949 [u], P = 101325.00 [Pa])
    Rotational S           11.343 [cal/(mol K)]       47.458 [J/(mol K)]       0.01807582 [mEh/K] (symmetry no. = 1)
    Vibrational S           2.618 [cal/(mol K)]       10.953 [J/(mol K)]       0.00417165 [mEh/K]
  Total S                  49.883 [cal/(mol K)]      208.713 [J/(mol K)]       0.07949440 [mEh/K]
  Correction S              0.000 [cal/(mol K)]        0.000 [J/(mol K)]       0.00000000 [mEh/K]

  Constant volume heat capacity, Cv
    Electronic Cv           0.000 [cal/(mol K)]        0.000 [J/(mol K)]       0.00000000 [mEh/K]
    Translational Cv        2.981 [cal/(mol K)]       12.472 [J/(mol K)]       0.00475022 [mEh/K]
    Rotational Cv           1.987 [cal/(mol K)]        8.314 [J/(mol K)]       0.00316681 [mEh/K]
    Vibrational Cv          3.278 [cal/(mol K)]       13.714 [J/(mol K)]       0.00522355 [mEh/K]
  Total Cv                  8.246 [cal/(mol K)]       34.501 [J/(mol K)]       0.01314058 [mEh/K]
  Correction Cv             0.000 [cal/(mol K)]        0.000 [J/(mol K)]       0.00000000 [mEh/K]

  Constant pressure heat capacity, Cp
    Electronic Cp           0.000 [cal/(mol K)]        0.000 [J/(mol K)]       0.00000000 [mEh/K]
    Translational Cp        4.968 [cal/(mol K)]       20.786 [J/(mol K)]       0.00791703 [mEh/K]
    Rotational Cp           1.987 [cal/(mol K)]        8.314 [J/(mol K)]       0.00316681 [mEh/K]
    Vibrational Cp          3.278 [cal/(mol K)]       13.714 [J/(mol K)]       0.00522355 [mEh/K]
  Total Cp                 10.233 [cal/(mol K)]       42.815 [J/(mol K)]       0.01630739 [mEh/K]
  Correction Cp             0.000 [cal/(mol K)]        0.000 [J/(mol K)]       0.00000000 [mEh/K]

  ==> Thermochemistry Energy Analysis <==

  Raw electronic energy, E0
  Total E0, Electronic energy at well bottom at 0 [K]                 -113.31742588 [Eh]

  Zero-point energy, ZPE_vib = Sum_i nu_i / 2
    Electronic ZPE          0.000 [kcal/mol]        0.000 [kJ/mol]       0.00000000 [Eh]
    Translational ZPE       0.000 [kcal/mol]        0.000 [kJ/mol]       0.00000000 [Eh]
    Rotational ZPE          0.000 [kcal/mol]        0.000 [kJ/mol]       0.00000000 [Eh]
    Vibrational ZPE         3.898 [kcal/mol]       16.309 [kJ/mol]       0.00621182 [Eh]        1363.336 [cm^-1]
  Correction ZPE            3.898 [kcal/mol]       16.309 [kJ/mol]       0.00621182 [Eh]        1363.336 [cm^-1]
  Total ZPE, Electronic energy at 0 [K]                               -113.31121407 [Eh]

  Thermal Energy, E (includes ZPE)
    Electronic E            0.000 [kcal/mol]        0.000 [kJ/mol]       0.00000000 [Eh]
    Translational E         0.889 [kcal/mol]        3.718 [kJ/mol]       0.00141628 [Eh]
    Rotational E            0.592 [kcal/mol]        2.479 [kJ/mol]       0.00094418 [Eh]
    Vibrational E           4.394 [kcal/mol]       18.386 [kJ/mol]       0.00700291 [Eh]
  Correction E              5.876 [kcal/mol]       24.584 [kJ/mol]       0.00936337 [Eh]
  Total E, Electronic energy at  298.15 [K]                           -113.30806251 [Eh]

  Enthalpy, H_trans = E_trans + k_B * T
    Electronic H            0.000 [kcal/mol]        0.000 [kJ/mol]       0.00000000 [Eh]
    Translational H         1.481 [kcal/mol]        6.197 [kJ/mol]       0.00236046 [Eh]
    Rotational H            0.592 [kcal/mol]        2.479 [kJ/mol]       0.00094418 [Eh]
    Vibrational H           4.394 [kcal/mol]       18.386 [kJ/mol]       0.00700291 [Eh]
  Correction H              6.468 [kcal/mol]       27.062 [kJ/mol]       0.01030756 [Eh]
  Total H, Enthalpy at  298.15 [K]                                    -113.30711833 [Eh]

  Gibbs free energy, G = H - T * S
    Electronic G            0.000 [kcal/mol]        0.000 [kJ/mol]       0.00000000 [Eh]
    Translational G        -9.229 [kcal/mol]      -38.615 [kJ/mol]      -0.01470771 [Eh]
    Rotational G           -2.789 [kcal/mol]      -11.671 [kJ/mol]      -0.00444512 [Eh]
    Vibrational G           3.614 [kcal/mol]       15.121 [kJ/mol]       0.00575913 [Eh]
  Correction G             -8.405 [kcal/mol]      -35.165 [kJ/mol]      -0.01339370 [Eh]
  Total G, Free enthalpy at  298.15 [K]                               -113.33081958 [Eh]

*** Psi4 exiting successfully. Buy a developer a beer!
