                               Psi4 1.3.2 release

  ==> Input File <==

--------------------------------------------------------------------------
set basis  6-31++g**
molecule {
0 1
   C       -0.61446        0.00000        0.00000
   C        0.61446        0.00000        0.00000
   H       -1.68923        0.00000        0.00000
   H        1.68923        0.00000        0.00000
}
energy('scf')
frequencies('scf')
--------------------------------------------------------------------------

    Molecular point group: d2h
  Charge       = 0
  Multiplicity = 1
  Basis Set: 6-31++G**
    Blend: 6-31++G**
  Basis Set: (6-31++G** AUX)
    Blend: AUG-CC-PVDZ-JKFIT
  @DF-RHF Final Energy:   -76.82328113283054
    Total Energy =                        -76.8232811328305445
    Molecular point group: d2h
  Basis Set: 6-31++G**
    Blend: 6-31++G**
  Basis Set: (6-31++G** AUX)
    Blend: AUG-CC-PVDZ-JKFIT
  @DF-RHF Final Energy:   -76.82328113286854
    Total Energy =                        -76.8232811328685443
  Basis Set: 6-31++G**
    Blend: 6-31++G**
  Basis Set: (6-31++G** AUX)
    Blend: AUG-CC-PVDZ-JKFIT

  -Total Gradient:
     Atom            X                  Y                   Z
    ------   -----------------  -----------------  -----------------
       1       -0.073323704698    -0.000000000000     0.000000000000
       2        0.073323704698     0.000000000000     0.000000000000
       3       -0.013895419241    -0.000000000000     0.000000000000
       4        0.013895419241     0.000000000000     0.000000000000

  Charge       = 0
  Multiplicity = 1
  Basis Set: 6-31++G**
    Blend: 6-31++G**
  Basis Set: (6-31++G** AUX)
    Blend: AUG-CC-PVDZ-JKFIT

    Orbital Energies [Eh]
    ---------------------

    Doubly Occupied:

       1Ag   -11.261226     1B3u  -11.258079     2Ag    -1.024347
       2B3u   -0.767636     3Ag    -0.676065     1B2u   -0.404165
       1B1u   -0.404165

  @DF-RHF Final Energy:   -76.82328113286854

   => Energetics <=

    Nuclear Repulsion Energy =             24.3232181713792350
    One-Electron Energy =                -150.7016309210814597
    Two-Electron Energy =                  49.5551316168336768
    Total Energy =                        -76.8232811328685443

  Dipole Moment: [D]
     X:     0.0000      Y:     0.0000      Z:     0.0000     Total:     0.0000

    Molecular point group: d2h
  Basis Set: 6-31++G**
    Blend: 6-31++G**
  Basis Set: (6-31++G** AUX)
    Blend: AUG-CC-PVDZ-JKFIT
  Basis Set: (6-31++G** AUX)
    Blend: AUG-CC-PVDZ-JKFIT
    Molecular point group: d2h

    Geometry (in Angstrom), charge = 0, multiplicity = 1:

       Center              X                  Y                   Z               Mass
    ------------   -----------------  -----------------  -----------------  -----------------
         C           -0.614460000000    -0.000000000000     0.000000000000    12.000000000000
         C            0.614460000000     0.000000000000     0.000000000000    12.000000000000
         H           -1.689230000000    -0.000000000000     0.000000000000     1.007825032230
         H            1.689230000000     0.000000000000     0.000000000000     1.007825032230

  Basis Set: 6-31++G**
    Blend: 6-31++G**
  Basis Set: (6-31++G** AUX)
    Blend: AUG-CC-PVDZ-JKFIT

  Vibration                       4                   5                   6
  Freq [cm^-1]                 359.3466            359.3467            853.9517
  Irrep                                                                  B1g
  Reduced mass [u]              2.2014              2.2014              1.6095
  Force const [mDyne/A]         0.1675              0.1675              0.6915

  IR activ [km/mol]             0.0000              0.0000              0.0000

  Vibration                       7                   8                   9
  Freq [cm^-1]                 853.9520            940.7037            940.7037
  Irrep                          B2g
  Reduced mass [u]              1.6095              1.0848              1.0848
  Force const [mDyne/A]         0.6915              0.5656              0.5656

  IR activ [km/mol]             0.0000             139.5217            139.5217

  Vibration                       10                  11                  12
  Freq [cm^-1]                1996.5121           3414.9842           3503.4354
  Irrep                           Ag                 B3u                  Ag
  Reduced mass [u]              4.0273              1.0848              1.2088
  Force const [mDyne/A]         9.4582              7.4539              8.7417

  IR activ [km/mol]             0.0000             116.6630             0.0000

  ==> Thermochemistry Components <==

  Entropy, S
    Electronic S            0.000 [cal/(mol K)]        0.000 [J/(mol K)]       0.00000000 [mEh/K] (multiplicity = 1)
    Translational S        35.704 [cal/(mol K)]      149.387 [J/(mol K)]       0.05689862 [mEh/K] (mol. weight = 26.0157 [u], P = 101325.00 [Pa])
    Rotational S           10.952 [cal/(mol K)]       45.824 [J/(mol K)]       0.01745345 [mEh/K] (symmetry no. = 2)
    Vibrational S           2.824 [cal/(mol K)]       11.815 [J/(mol K)]       0.00450014 [mEh/K]
  Total S                  49.481 [cal/(mol K)]      207.026 [J/(mol K)]       0.07885221 [mEh/K]
  Correction S              0.000 [cal/(mol K)]        0.000 [J/(mol K)]       0.00000000 [mEh/K]

  Constant volume heat capacity, Cv
    Electronic Cv           0.000 [cal/(mol K)]        0.000 [J/(mol K)]       0.00000000 [mEh/K]
    Translational Cv        2.981 [cal/(mol K)]       12.472 [J/(mol K)]       0.00475022 [mEh/K]
    Rotational Cv           1.987 [cal/(mol K)]        8.314 [J/(mol K)]       0.00316681 [mEh/K]
    Vibrational Cv          5.150 [cal/(mol K)]       21.546 [J/(mol K)]       0.00820639 [mEh/K]
  Total Cv                 10.118 [cal/(mol K)]       42.332 [J/(mol K)]       0.01612341 [mEh/K]
  Correction Cv             0.000 [cal/(mol K)]        0.000 [J/(mol K)]       0.00000000 [mEh/K]

  Constant pressure heat capacity, Cp
    Electronic Cp           0.000 [cal/(mol K)]        0.000 [J/(mol K)]       0.00000000 [mEh/K]
    Translational Cp        4.968 [cal/(mol K)]       20.786 [J/(mol K)]       0.00791703 [mEh/K]
    Rotational Cp           1.987 [cal/(mol K)]        8.314 [J/(mol K)]       0.00316681 [mEh/K]
    Vibrational Cp          5.150 [cal/(mol K)]       21.546 [J/(mol K)]       0.00820639 [mEh/K]
  Total Cp                 12.105 [cal/(mol K)]       50.646 [J/(mol K)]       0.01929022 [mEh/K]
  Correction Cp             0.000 [cal/(mol K)]        0.000 [J/(mol K)]       0.00000000 [mEh/K]

  ==> Thermochemistry Energy Analysis <==

  Raw electronic energy, E0
  Total E0, Electronic energy at well bottom at 0 [K]                  -76.82328113 [Eh]

  Zero-point energy, ZPE_vib = Sum_i nu_i / 2
    Electronic ZPE          0.000 [kcal/mol]        0.000 [kJ/mol]       0.00000000 [Eh]
    Translational ZPE       0.000 [kcal/mol]        0.000 [kJ/mol]       0.00000000 [Eh]
    Rotational ZPE          0.000 [kcal/mol]        0.000 [kJ/mol]       0.00000000 [Eh]
    Vibrational ZPE        18.903 [kcal/mol]       79.091 [kJ/mol]       0.03012406 [Eh]        6611.468 [cm^-1]
  Correction ZPE           18.903 [kcal/mol]       79.091 [kJ/mol]       0.03012406 [Eh]        6611.468 [cm^-1]
  Total ZPE, Electronic energy at 0 [K]                                -76.79315707 [Eh]

  Thermal Energy, E (includes ZPE)
    Electronic E            0.000 [kcal/mol]        0.000 [kJ/mol]       0.00000000 [Eh]
    Translational E         0.889 [kcal/mol]        3.718 [kJ/mol]       0.00141628 [Eh]
    Rotational E            0.592 [kcal/mol]        2.479 [kJ/mol]       0.00094418 [Eh]
    Vibrational E          19.483 [kcal/mol]       81.516 [kJ/mol]       0.03104770 [Eh]
  Correction E             20.964 [kcal/mol]       87.713 [kJ/mol]       0.03340817 [Eh]
  Total E, Electronic energy at  298.15 [K]                            -76.78987297 [Eh]

  Enthalpy, H_trans = E_trans + k_B * T
    Electronic H            0.000 [kcal/mol]        0.000 [kJ/mol]       0.00000000 [Eh]
    Translational H         1.481 [kcal/mol]        6.197 [kJ/mol]       0.00236046 [Eh]
    Rotational H            0.592 [kcal/mol]        2.479 [kJ/mol]       0.00094418 [Eh]
    Vibrational H          19.483 [kcal/mol]       81.516 [kJ/mol]       0.03104770 [Eh]
  Correction H             21.556 [kcal/mol]       90.192 [kJ/mol]       0.03435235 [Eh]
  Total H, Enthalpy at  298.15 [K]                                     -76.78892878 [Eh]

  Gibbs free energy, G = H - T * S
    Electronic G            0.000 [kcal/mol]        0.000 [kJ/mol]       0.00000000 [Eh]
    Translational G        -9.164 [kcal/mol]      -38.342 [kJ/mol]      -0.01460386 [Eh]
    Rotational G           -2.673 [kcal/mol]      -11.183 [kJ/mol]      -0.00425956 [Eh]
    Vibrational G          18.641 [kcal/mol]       77.993 [kJ/mol]       0.02970599 [Eh]
  Correction G              6.804 [kcal/mol]       28.467 [kJ/mol]       0.01084256 [Eh]
  Total G, Free enthalpy at  298.15 [K]                                -76.81243857 [Eh]

*** Psi4 exiting successfully. Buy a developer a beer!
