                               Psi4 1.3.2 release

  ==> Input File <==

--------------------------------------------------------------------------
set basis  cc-pVTZ
molecule {
0 1
   O        0.00000        0.00000       -0.06797
   H        0.74903        0.00000        0.53936
   H       -0.74903        0.00000        0.53936
}
energy('scf')
frequencies('scf')

--------------------------------------------------------------------------

    Molecular point group: c2v
  Charge       = 0
  Multiplicity = 1
  Basis Set: CC-PVTZ
    Blend: CC-PVTZ
  Basis Set: (CC-PVTZ AUX)
    Blend: CC-PVTZ-JKFIT
  @DF-RHF Final Energy:   -76.05632001896416
    Total Energy =                        -76.0563200189641719
    Molecular point group: c2v
  Basis Set: CC-PVTZ
    Blend: CC-PVTZ
  Basis Set: (CC-PVTZ AUX)
    Blend: CC-PVTZ-JKFIT
  @DF-RHF Final Energy:   -76.05632001899046
    Total Energy =                        -76.0563200189904478
  Basis Set: CC-PVTZ
    Blend: CC-PVTZ
  Basis Set: (CC-PVTZ AUX)
    Blend: CC-PVTZ-JKFIT

  -Total Gradient:
     Atom            X                  Y                   Z
    ------   -----------------  -----------------  -----------------
       1        0.000000000000    -0.000000000000    -0.038332188300
       2        0.014948302167     0.000000000000     0.019166094150
       3       -0.014948302167    -0.000000000000     0.019166094150

  Charge       = 0
  Multiplicity = 1
  Basis Set: CC-PVTZ
    Blend: CC-PVTZ
  Basis Set: (CC-PVTZ AUX)
    Blend: CC-PVTZ-JKFIT

    Orbital Energies [Eh]
    ---------------------

    Doubly Occupied:

       1A1   -20.557266     2A1    -1.344000     1B1    -0.700973
       3A1    -0.581520     1B2    -0.504767

  @DF-RHF Final Energy:   -76.05632001899046

   => Energetics <=

    Nuclear Repulsion Energy =              9.1334334609951409
    One-Electron Energy =                -123.0024546195025152
    Two-Electron Energy =                  37.8127011395169248
    Total Energy =                        -76.0563200189904478

  Dipole Moment: [D]
     X:     0.0000      Y:     0.0000      Z:     2.0716     Total:     2.0716

    Molecular point group: c2v
  Basis Set: CC-PVTZ
    Blend: CC-PVTZ
  Basis Set: (CC-PVTZ AUX)
    Blend: CC-PVTZ-JKFIT
  Basis Set: (CC-PVTZ AUX)
    Blend: CC-PVTZ-JKFIT
    Molecular point group: c2v

    Geometry (in Angstrom), charge = 0, multiplicity = 1:

       Center              X                  Y                   Z               Mass
    ------------   -----------------  -----------------  -----------------  -----------------
         O            0.000000000000     0.000000000000    -0.067969259994    15.994914619570
         H            0.749030000000     0.000000000000     0.539360740006     1.007825032230
         H           -0.749030000000    -0.000000000000     0.539360740006     1.007825032230

  Basis Set: CC-PVTZ
    Blend: CC-PVTZ
  Basis Set: (CC-PVTZ AUX)
    Blend: CC-PVTZ-JKFIT

  Vibration                       4                   5                   6
  Freq [cm^-1]                 526.2094            596.5186            702.1653
  Irrep                           A2                  B1                  B2
  Reduced mass [u]              1.0078              1.0476              1.1259
  Force const [mDyne/A]         0.1644              0.2196              0.3271

  IR activ [km/mol]             0.0000             100.1742            274.6386

  Vibration                       7                   8                   9
  Freq [cm^-1]                1841.6269           3822.4523           3885.8330
  Irrep                           A1                  A1                  B1
  Reduced mass [u]              1.0811              1.0467              1.0801
  Force const [mDyne/A]         2.1603              9.0104              9.6092

  IR activ [km/mol]            82.4095             13.7412             56.8934

  ==> Thermochemistry Components <==

  Entropy, S
    Electronic S            0.000 [cal/(mol K)]        0.000 [J/(mol K)]       0.00000000 [mEh/K] (multiplicity = 1)
    Translational S        34.608 [cal/(mol K)]      144.801 [J/(mol K)]       0.05515177 [mEh/K] (mol. weight = 18.0106 [u], P = 101325.00 [Pa])
    Rotational S           10.508 [cal/(mol K)]       43.968 [J/(mol K)]       0.01674635 [mEh/K] (symmetry no. = 2)
    Vibrational S           1.358 [cal/(mol K)]        5.680 [J/(mol K)]       0.00216356 [mEh/K]
  Total S                  46.474 [cal/(mol K)]      194.449 [J/(mol K)]       0.07406168 [mEh/K]
  Correction S              0.000 [cal/(mol K)]        0.000 [J/(mol K)]       0.00000000 [mEh/K]

  Constant volume heat capacity, Cv
    Electronic Cv           0.000 [cal/(mol K)]        0.000 [J/(mol K)]       0.00000000 [mEh/K]
    Translational Cv        2.981 [cal/(mol K)]       12.472 [J/(mol K)]       0.00475022 [mEh/K]
    Rotational Cv           2.981 [cal/(mol K)]       12.472 [J/(mol K)]       0.00475022 [mEh/K]
    Vibrational Cv          3.078 [cal/(mol K)]       12.878 [J/(mol K)]       0.00490503 [mEh/K]
  Total Cv                  9.040 [cal/(mol K)]       37.822 [J/(mol K)]       0.01440546 [mEh/K]
  Correction Cv             0.000 [cal/(mol K)]        0.000 [J/(mol K)]       0.00000000 [mEh/K]

  Constant pressure heat capacity, Cp
    Electronic Cp           0.000 [cal/(mol K)]        0.000 [J/(mol K)]       0.00000000 [mEh/K]
    Translational Cp        4.968 [cal/(mol K)]       20.786 [J/(mol K)]       0.00791703 [mEh/K]
    Rotational Cp           2.981 [cal/(mol K)]       12.472 [J/(mol K)]       0.00475022 [mEh/K]
    Vibrational Cp          3.078 [cal/(mol K)]       12.878 [J/(mol K)]       0.00490503 [mEh/K]
  Total Cp                 11.027 [cal/(mol K)]       46.136 [J/(mol K)]       0.01757227 [mEh/K]
  Correction Cp             0.000 [cal/(mol K)]        0.000 [J/(mol K)]       0.00000000 [mEh/K]

  ==> Thermochemistry Energy Analysis <==

  Raw electronic energy, E0
  Total E0, Electronic energy at well bottom at 0 [K]                  -76.05632002 [Eh]

  Zero-point energy, ZPE_vib = Sum_i nu_i / 2
    Electronic ZPE          0.000 [kcal/mol]        0.000 [kJ/mol]       0.00000000 [Eh]
    Translational ZPE       0.000 [kcal/mol]        0.000 [kJ/mol]       0.00000000 [Eh]
    Rotational ZPE          0.000 [kcal/mol]        0.000 [kJ/mol]       0.00000000 [Eh]
    Vibrational ZPE        16.261 [kcal/mol]       68.036 [kJ/mol]       0.02591371 [Eh]        5687.403 [cm^-1]
  Correction ZPE           16.261 [kcal/mol]       68.036 [kJ/mol]       0.02591371 [Eh]        5687.403 [cm^-1]
  Total ZPE, Electronic energy at 0 [K]                                -76.03040631 [Eh]

  Thermal Energy, E (includes ZPE)
    Electronic E            0.000 [kcal/mol]        0.000 [kJ/mol]       0.00000000 [Eh]
    Translational E         0.889 [kcal/mol]        3.718 [kJ/mol]       0.00141628 [Eh]
    Rotational E            0.889 [kcal/mol]        3.718 [kJ/mol]       0.00141628 [Eh]
    Vibrational E          16.562 [kcal/mol]       69.297 [kJ/mol]       0.02639397 [Eh]
  Correction E             18.340 [kcal/mol]       76.734 [kJ/mol]       0.02922653 [Eh]
  Total E, Electronic energy at  298.15 [K]                            -76.02709349 [Eh]

  Enthalpy, H_trans = E_trans + k_B * T
    Electronic H            0.000 [kcal/mol]        0.000 [kJ/mol]       0.00000000 [Eh]
    Translational H         1.481 [kcal/mol]        6.197 [kJ/mol]       0.00236046 [Eh]
    Rotational H            0.889 [kcal/mol]        3.718 [kJ/mol]       0.00141628 [Eh]
    Vibrational H          16.562 [kcal/mol]       69.297 [kJ/mol]       0.02639397 [Eh]
  Correction H             18.932 [kcal/mol]       79.213 [kJ/mol]       0.03017071 [Eh]
  Total H, Enthalpy at  298.15 [K]                                     -76.02614931 [Eh]

  Gibbs free energy, G = H - T * S
    Electronic G            0.000 [kcal/mol]        0.000 [kJ/mol]       0.00000000 [Eh]
    Translational G        -8.837 [kcal/mol]      -36.975 [kJ/mol]      -0.01408304 [Eh]
    Rotational G           -2.244 [kcal/mol]       -9.390 [kJ/mol]      -0.00357665 [Eh]
    Vibrational G          16.158 [kcal/mol]       67.604 [kJ/mol]       0.02574891 [Eh]
  Correction G              5.076 [kcal/mol]       21.238 [kJ/mol]       0.00808922 [Eh]
  Total G, Free enthalpy at  298.15 [K]                                -76.04823080 [Eh]

*** Psi4 exiting successfully. Buy a developer a beer!
