                               Psi4 1.3.2 release

  ==> Input File <==

--------------------------------------------------------------------------
set basis  6-31+g*
molecule {
0 1
   C       -0.61446        0.00000        0.00000
   C        0.61446        0.00000        0.00000
   H       -1.68923        0.00000        0.00000
   H        1.68923        0.00000        0.00000
}
energy('MP2')
frequencies('MP2')
--------------------------------------------------------------------------

    Molecular point group: d2h
  Charge       = 0
  Multiplicity = 1
  Basis Set: 6-31+G*
    Blend: 6-31+G*
  Basis Set: (6-31+G* AUX)
    Blend: HEAVY-AUG-CC-PVDZ-JKFIT
  @DF-RHF Final Energy:   -76.81895371670466
    Total Energy =                        -76.8189537167046410
  Basis Set: (6-31+G* AUX)
    Blend: HEAVY-AUG-CC-PVDZ-RI
	 Reference Energy          =     -76.8189537167046552 [Eh]
	 Singles Energy            =      -0.0000000000000000 [Eh]
	 Same-Spin Energy          =      -0.0640064281260087 [Eh]
	 Opposite-Spin Energy      =      -0.1995492128815783 [Eh]
	 Correlation Energy        =      -0.2635556410075870 [Eh]
	 Total Energy              =     -77.0825093577122402 [Eh]
	 SCS Total Energy          =     -77.0797482482045524 [Eh]
    Molecular point group: d2h
  Basis Set: 6-31+G*
    Blend: 6-31+G*
  Basis Set: (6-31+G* AUX)
    Blend: HEAVY-AUG-CC-PVDZ-JKFIT
  @DF-RHF Final Energy:   -76.81895371670464
    Total Energy =                        -76.8189537167046268
  Basis Set: (6-31+G* AUX)
  @DF-RHF Final Energy:   -76.81895371670464
    Total Energy =                        -76.8189537167046268
  @DF-RHF Final Energy:   -76.81879774348354
    Total Energy =                        -76.8187977434835432
  @DF-RHF Final Energy:   -76.81910448289021
    Total Energy =                        -76.8191044828902108
  @DF-RHF Final Energy:   -76.81885138912482
    Total Energy =                        -76.8188513891248164
  @DF-RHF Final Energy:   -76.81904572498462
    Total Energy =                        -76.8190457249846190
  @DF-RHF Final Energy:   -76.81895336676203
    Total Energy =                        -76.8189533667620452
  @DF-RHF Final Energy:   -76.81895336676307
    Total Energy =                        -76.8189533667630684
  @DF-RHF Final Energy:   -76.81895329387893
    Total Energy =                        -76.8189532938789341
  @DF-RHF Final Energy:   -76.81895329392481
    Total Energy =                        -76.8189532939248068
    Molecular point group: c2v
  Charge       = 0
  Multiplicity = 1
  Basis Set: 6-31+G*
    Blend: 6-31+G*
  Basis Set: (6-31+G* AUX)
    Blend: HEAVY-AUG-CC-PVDZ-JKFIT

    Orbital Energies [Eh]
    ---------------------

    Doubly Occupied:

       1A1   -11.261501     2A1   -11.258321     3A1    -1.024348
       4A1    -0.768784     5A1    -0.677189     1B2    -0.404085
       1B1    -0.404085

  @DF-RHF Final Energy:   -76.81894813128088

   => Energetics <=

    Nuclear Repulsion Energy =             24.3232393838559098
    One-Electron Energy =                -150.6877496680196487
    Two-Electron Energy =                  49.5455621528828729
    Total Energy =                        -76.8189481312808766

  Dipole Moment: [D]
     X:     0.0041      Y:     0.0000      Z:     0.0000     Total:     0.0041

  Basis Set: (6-31+G* AUX)
    Blend: HEAVY-AUG-CC-PVDZ-RI
    Molecular point group: c2v

    Geometry (in Angstrom), charge = 0, multiplicity = 1:

       Center              X                  Y                   Z               Mass
    ------------   -----------------  -----------------  -----------------  -----------------
         C           -0.614610333491     0.000000000000     0.000000000000    12.000000000000
         C            0.614309666509     0.000000000000     0.000000000000    12.000000000000
         H           -1.687440004874     0.000000000000     0.000000000000     1.007825032230
         H            1.691019995126     0.000000000000     0.000000000000     1.007825032230

  Basis Set: 6-31+G*
    Blend: 6-31+G*
  Basis Set: (6-31+G* AUX)
    Blend: HEAVY-AUG-CC-PVDZ-JKFIT
  Basis Set: (6-31+G* AUX)
    Blend: HEAVY-AUG-CC-PVDZ-JKFIT
	 Reference Energy          =     -76.8189481312808766 [Eh]
	 Singles Energy            =      -0.0000000000000000 [Eh]
	 Same-Spin Energy          =      -0.0640064593034641 [Eh]
	 Opposite-Spin Energy      =      -0.1995493196710079 [Eh]
	 Correlation Energy        =      -0.2635557789744721 [Eh]
	 Total Energy              =     -77.0825039102553546 [Eh]

	 ================> DF-SCS-MP2 Energies <==================
	-----------------------------------------------------------
	 SCS Same-Spin Scale       =       0.3333333333333333 [-]
	 SCS Opposite-Spin Scale   =       1.2000000000000000 [-]
	 SCS Same-Spin Energy      =      -0.0213354864344880 [Eh]
	 SCS Opposite-Spin Energy  =      -0.2394591836052095 [Eh]
	 SCS Correlation Energy    =      -0.2607946700396975 [Eh]
	 SCS Total Energy          =     -77.0797428013205774 [Eh]
	-----------------------------------------------------------

  -Total Gradient:
     Atom            X                  Y                   Z
    ------   -----------------  -----------------  -----------------
       1       -0.014719791037     0.000000000000     0.000000000000
       2        0.011748533737     0.000000000000     0.000000000000
       3       -0.004176957738     0.000000000000     0.000000000000
       4        0.007148215038     0.000000000000     0.000000000000

  Vibration                       6                   7                   8
  Freq [cm^-1]                 468.6945            468.6959            780.6863
  Irrep                          B1g                 B2g                 B1u
  Reduced mass [u]              1.5641              1.5641              1.0848
  Force const [mDyne/A]         0.2024              0.2024              0.3895

  Vibration                       9                   10                  11
  Freq [cm^-1]                 780.6863           1931.1988           3393.4502
  Irrep                          B2u                  Ag                 B3u
  Reduced mass [u]              1.0848              4.1047              1.0848
  Force const [mDyne/A]         0.3895              9.0196              7.3602

  Vibration                       12
  Freq [cm^-1]                3478.9713
  Irrep                           Ag
  Reduced mass [u]              1.2020
  Force const [mDyne/A]         8.5715

  ==> Thermochemistry Components <==

  Entropy, S
    Electronic S            0.000 [cal/(mol K)]        0.000 [J/(mol K)]       0.00000000 [mEh/K] (multiplicity = 1)
    Translational S        35.704 [cal/(mol K)]      149.387 [J/(mol K)]       0.05689862 [mEh/K] (mol. weight = 26.0157 [u], P = 101325.00 [Pa])
    Rotational S           10.952 [cal/(mol K)]       45.824 [J/(mol K)]       0.01745345 [mEh/K] (symmetry no. = 2)
    Vibrational S           1.931 [cal/(mol K)]        8.081 [J/(mol K)]       0.00307800 [mEh/K]
  Total S                  48.588 [cal/(mol K)]      203.293 [J/(mol K)]       0.07743007 [mEh/K]
  Correction S              0.000 [cal/(mol K)]        0.000 [J/(mol K)]       0.00000000 [mEh/K]

  Constant volume heat capacity, Cv
    Electronic Cv           0.000 [cal/(mol K)]        0.000 [J/(mol K)]       0.00000000 [mEh/K]
    Translational Cv        2.981 [cal/(mol K)]       12.472 [J/(mol K)]       0.00475022 [mEh/K]
    Rotational Cv           1.987 [cal/(mol K)]        8.314 [J/(mol K)]       0.00316681 [mEh/K]
    Vibrational Cv          4.021 [cal/(mol K)]       16.823 [J/(mol K)]       0.00640749 [mEh/K]
  Total Cv                  8.989 [cal/(mol K)]       37.609 [J/(mol K)]       0.01432451 [mEh/K]
  Correction Cv             0.000 [cal/(mol K)]        0.000 [J/(mol K)]       0.00000000 [mEh/K]

  Constant pressure heat capacity, Cp
    Electronic Cp           0.000 [cal/(mol K)]        0.000 [J/(mol K)]       0.00000000 [mEh/K]
    Translational Cp        4.968 [cal/(mol K)]       20.786 [J/(mol K)]       0.00791703 [mEh/K]
    Rotational Cp           1.987 [cal/(mol K)]        8.314 [J/(mol K)]       0.00316681 [mEh/K]
    Vibrational Cp          4.021 [cal/(mol K)]       16.823 [J/(mol K)]       0.00640749 [mEh/K]
  Total Cp                 10.976 [cal/(mol K)]       45.923 [J/(mol K)]       0.01749132 [mEh/K]
  Correction Cp             0.000 [cal/(mol K)]        0.000 [J/(mol K)]       0.00000000 [mEh/K]

  ==> Thermochemistry Energy Analysis <==

  Raw electronic energy, E0
  Total E0, Electronic energy at well bottom at 0 [K]                  -77.08250936 [Eh]

  Zero-point energy, ZPE_vib = Sum_i nu_i / 2
    Electronic ZPE          0.000 [kcal/mol]        0.000 [kJ/mol]       0.00000000 [Eh]
    Translational ZPE       0.000 [kcal/mol]        0.000 [kJ/mol]       0.00000000 [Eh]
    Rotational ZPE          0.000 [kcal/mol]        0.000 [kJ/mol]       0.00000000 [Eh]
    Vibrational ZPE        16.158 [kcal/mol]       67.603 [kJ/mol]       0.02574872 [Eh]        5651.192 [cm^-1]
  Correction ZPE           16.158 [kcal/mol]       67.603 [kJ/mol]       0.02574872 [Eh]        5651.192 [cm^-1]
  Total ZPE, Electronic energy at 0 [K]                                -77.05676063 [Eh]

  Thermal Energy, E (includes ZPE)
    Electronic E            0.000 [kcal/mol]        0.000 [kJ/mol]       0.00000000 [Eh]
    Translational E         0.889 [kcal/mol]        3.718 [kJ/mol]       0.00141628 [Eh]
    Rotational E            0.592 [kcal/mol]        2.479 [kJ/mol]       0.00094418 [Eh]
    Vibrational E          16.575 [kcal/mol]       69.351 [kJ/mol]       0.02641447 [Eh]
  Correction E             18.057 [kcal/mol]       75.549 [kJ/mol]       0.02877493 [Eh]
  Total E, Electronic energy at  298.15 [K]                            -77.05373443 [Eh]

  Enthalpy, H_trans = E_trans + k_B * T
    Electronic H            0.000 [kcal/mol]        0.000 [kJ/mol]       0.00000000 [Eh]
    Translational H         1.481 [kcal/mol]        6.197 [kJ/mol]       0.00236046 [Eh]
    Rotational H            0.592 [kcal/mol]        2.479 [kJ/mol]       0.00094418 [Eh]
    Vibrational H          16.575 [kcal/mol]       69.351 [kJ/mol]       0.02641447 [Eh]
  Correction H             18.649 [kcal/mol]       78.028 [kJ/mol]       0.02971911 [Eh]
  Total H, Enthalpy at  298.15 [K]                                     -77.05279025 [Eh]

  Gibbs free energy, G = H - T * S
    Electronic G            0.000 [kcal/mol]        0.000 [kJ/mol]       0.00000000 [Eh]
    Translational G        -9.164 [kcal/mol]      -38.342 [kJ/mol]      -0.01460386 [Eh]
    Rotational G           -2.673 [kcal/mol]      -11.183 [kJ/mol]      -0.00425956 [Eh]
    Vibrational G          15.999 [kcal/mol]       66.942 [kJ/mol]       0.02549676 [Eh]
  Correction G              4.162 [kcal/mol]       17.416 [kJ/mol]       0.00663334 [Eh]
  Total G, Free enthalpy at  298.15 [K]                                -77.07587602 [Eh]

*** Psi4 exiting successfully. Buy a developer a beer!
