                               Psi4 1.3.2 release

  ==> Input File <==

--------------------------------------------------------------------------
set basis  cc-pVTZ
molecule {
0 1
   C       -0.61446        0.00000        0.00000
   C        0.61446        0.00000        0.00000
   H       -1.68923        0.00000        0.00000
   H        1.68923        0.00000        0.00000
}
energy('B3LYP')
frequencies('B3LYP')
--------------------------------------------------------------------------

    Molecular point group: d2h
  Charge       = 0
  Multiplicity = 1
  Basis Set: CC-PVTZ
    Blend: CC-PVTZ
  Basis Set: (CC-PVTZ AUX)
    Blend: CC-PVTZ-JKFIT
  @DF-RKS Final Energy:   -77.36128458133702
    Total Energy =                        -77.3612845813370313
    Molecular point group: d2h
  Basis Set: CC-PVTZ
    Blend: CC-PVTZ
  Basis Set: (CC-PVTZ AUX)
    Blend: CC-PVTZ-JKFIT
  @DF-RKS Final Energy:   -77.36128458181000
    Total Energy =                        -77.3612845818099970
  Basis Set: CC-PVTZ
    Blend: CC-PVTZ
  Basis Set: (CC-PVTZ AUX)
    Blend: CC-PVTZ-JKFIT
  Basis Set: CC-PVTZ
    Blend: CC-PVTZ
  Basis Set: (CC-PVTZ AUX)
    Blend: CC-PVTZ-JKFIT
  @DF-RKS Final Energy:   -77.36128458181000
    Total Energy =                        -77.3612845818099970
  Basis Set: CC-PVTZ
  @DF-RKS Final Energy:   -77.36117277743226
    Total Energy =                        -77.3611727774322588
  @DF-RKS Final Energy:   -77.36139167366913
    Total Energy =                        -77.3613916736691323
  @DF-RKS Final Energy:   -77.36121339810909
    Total Energy =                        -77.3612133981090864
  @DF-RKS Final Energy:   -77.36134629439557
    Total Energy =                        -77.3613462943955881
  @DF-RKS Final Energy:   -77.36128446074240
    Total Energy =                        -77.3612844607423824
  @DF-RKS Final Energy:   -77.36128443002804
    Total Energy =                        -77.3612844300280216
  @DF-RKS Final Energy:   -77.36128446074683
    Total Energy =                        -77.3612844607468304
  @DF-RKS Final Energy:   -77.36128442998049
    Total Energy =                        -77.3612844299805005
  @DF-RKS Final Energy:   -77.36128426055703
    Total Energy =                        -77.3612842605570279
  Basis Set: (CC-PVTZ AUX)
    Blend: CC-PVTZ-JKFIT
  Basis Set: CC-PVTZ
    Blend: CC-PVTZ
  Basis Set: (CC-PVTZ AUX)
    Blend: CC-PVTZ-JKFIT
  @DF-RKS Final Energy:   -77.36128426056713
    Total Energy =                        -77.3612842605671318
  Basis Set: CC-PVTZ
    Blend: CC-PVTZ
  Basis Set: (CC-PVTZ AUX)
    Blend: CC-PVTZ-JKFIT
    Molecular point group: c2v
  Charge       = 0
  Multiplicity = 1
  Basis Set: CC-PVTZ
    Blend: CC-PVTZ
  Basis Set: (CC-PVTZ AUX)
    Blend: CC-PVTZ-JKFIT

    Orbital Energies [Eh]
    ---------------------

    Doubly Occupied:

       1A1   -10.193133     2A1   -10.191079     3A1    -0.751494
       4A1    -0.572802     5A1    -0.499898     1B1    -0.294426
       1B2    -0.294426

  @DF-RKS Final Energy:   -77.36127945109472

   => Energetics <=

    Nuclear Repulsion Energy =             24.3232393838559098
    One-Electron Energy =                -151.0906844218117442
    Two-Electron Energy =                  58.6862564856135620
    DFT Exchange-Correlation Energy =      -9.2800908987524462
    Empirical Dispersion Energy =           0.0000000000000000
    VV10 Nonlocal Energy =                  0.0000000000000000
    Total Energy =                        -77.3612794510947168

  Dipole Moment: [D]
     X:     0.0040      Y:     0.0000      Z:     0.0000     Total:     0.0040

    Molecular point group: c2v

    Geometry (in Angstrom), charge = 0, multiplicity = 1:

       Center              X                  Y                   Z               Mass
    ------------   -----------------  -----------------  -----------------  -----------------
         C           -0.614610333491     0.000000000000     0.000000000000    12.000000000000
         C            0.614309666509     0.000000000000     0.000000000000    12.000000000000
         H           -1.687440004874     0.000000000000     0.000000000000     1.007825032230
         H            1.691019995126     0.000000000000     0.000000000000     1.007825032230

  Basis Set: CC-PVTZ
    Blend: CC-PVTZ
  Basis Set: (CC-PVTZ AUX)
    Blend: CC-PVTZ-JKFIT

  -Total Gradient:
     Atom            X                  Y                   Z
    ------   -----------------  -----------------  -----------------
       1       -0.055025602775     0.000000000000     0.000000000000
       2        0.052227032369     0.000000000000     0.000000000000
       3       -0.008028958466     0.000000000000     0.000000000000
       4        0.010827540434     0.000000000000     0.000000000000

  Vibration                       4                   5                   6
  Freq [cm^-1]                 303.2312            303.2312            696.5242
  Irrep                          B1g                 B2g                 B1g
  Reduced mass [u]              2.1607              2.1607              1.6320
  Force const [mDyne/A]         0.1171              0.1171              0.4665

  Vibration                       7                   8                   9
  Freq [cm^-1]                 696.5242            824.1451            824.1452
  Irrep                          B2g                 B2u                 B1u
  Reduced mass [u]              1.6320              1.0848              1.0848
  Force const [mDyne/A]         0.4665              0.4341              0.4341

  Vibration                       10                  11                  12
  Freq [cm^-1]                1891.1132           3293.3683           3378.7355
  Irrep                           Ag                 B3u                  Ag
  Reduced mass [u]              4.0616              1.0848              1.2057
  Force const [mDyne/A]         8.5582              6.9325              8.1099

  ==> Thermochemistry Components <==

  Entropy, S
    Electronic S            0.000 [cal/(mol K)]        0.000 [J/(mol K)]       0.00000000 [mEh/K] (multiplicity = 1)
    Translational S        35.704 [cal/(mol K)]      149.387 [J/(mol K)]       0.05689862 [mEh/K] (mol. weight = 26.0157 [u], P = 101325.00 [Pa])
    Rotational S           10.952 [cal/(mol K)]       45.824 [J/(mol K)]       0.01745345 [mEh/K] (symmetry no. = 2)
    Vibrational S           3.798 [cal/(mol K)]       15.890 [J/(mol K)]       0.00605206 [mEh/K]
  Total S                  50.454 [cal/(mol K)]      211.101 [J/(mol K)]       0.08040413 [mEh/K]
  Correction S              0.000 [cal/(mol K)]        0.000 [J/(mol K)]       0.00000000 [mEh/K]

  Constant volume heat capacity, Cv
    Electronic Cv           0.000 [cal/(mol K)]        0.000 [J/(mol K)]       0.00000000 [mEh/K]
    Translational Cv        2.981 [cal/(mol K)]       12.472 [J/(mol K)]       0.00475022 [mEh/K]
    Rotational Cv           1.987 [cal/(mol K)]        8.314 [J/(mol K)]       0.00316681 [mEh/K]
    Vibrational Cv          6.249 [cal/(mol K)]       26.144 [J/(mol K)]       0.00995774 [mEh/K]
  Total Cv                 11.217 [cal/(mol K)]       46.930 [J/(mol K)]       0.01787477 [mEh/K]
  Correction Cv             0.000 [cal/(mol K)]        0.000 [J/(mol K)]       0.00000000 [mEh/K]

  Constant pressure heat capacity, Cp
    Electronic Cp           0.000 [cal/(mol K)]        0.000 [J/(mol K)]       0.00000000 [mEh/K]
    Translational Cp        4.968 [cal/(mol K)]       20.786 [J/(mol K)]       0.00791703 [mEh/K]
    Rotational Cp           1.987 [cal/(mol K)]        8.314 [J/(mol K)]       0.00316681 [mEh/K]
    Vibrational Cp          6.249 [cal/(mol K)]       26.144 [J/(mol K)]       0.00995774 [mEh/K]
  Total Cp                 13.204 [cal/(mol K)]       55.245 [J/(mol K)]       0.02104158 [mEh/K]
  Correction Cp             0.000 [cal/(mol K)]        0.000 [J/(mol K)]       0.00000000 [mEh/K]

  ==> Thermochemistry Energy Analysis <==

  Raw electronic energy, E0
  Total E0, Electronic energy at well bottom at 0 [K]                  -77.36128458 [Eh]

  Zero-point energy, ZPE_vib = Sum_i nu_i / 2
    Electronic ZPE          0.000 [kcal/mol]        0.000 [kJ/mol]       0.00000000 [Eh]
    Translational ZPE       0.000 [kcal/mol]        0.000 [kJ/mol]       0.00000000 [Eh]
    Rotational ZPE          0.000 [kcal/mol]        0.000 [kJ/mol]       0.00000000 [Eh]
    Vibrational ZPE        17.457 [kcal/mol]       73.038 [kJ/mol]       0.02781875 [Eh]        6105.509 [cm^-1]
  Correction ZPE           17.457 [kcal/mol]       73.038 [kJ/mol]       0.02781875 [Eh]        6105.509 [cm^-1]
  Total ZPE, Electronic energy at 0 [K]                                -77.33346584 [Eh]

  Thermal Energy, E (includes ZPE)
    Electronic E            0.000 [kcal/mol]        0.000 [kJ/mol]       0.00000000 [Eh]
    Translational E         0.889 [kcal/mol]        3.718 [kJ/mol]       0.00141628 [Eh]
    Rotational E            0.592 [kcal/mol]        2.479 [kJ/mol]       0.00094418 [Eh]
    Vibrational E          18.213 [kcal/mol]       76.201 [kJ/mol]       0.02902350 [Eh]
  Correction E             19.694 [kcal/mol]       82.399 [kJ/mol]       0.03138396 [Eh]
  Total E, Electronic energy at  298.15 [K]                            -77.32990062 [Eh]

  Enthalpy, H_trans = E_trans + k_B * T
    Electronic H            0.000 [kcal/mol]        0.000 [kJ/mol]       0.00000000 [Eh]
    Translational H         1.481 [kcal/mol]        6.197 [kJ/mol]       0.00236046 [Eh]
    Rotational H            0.592 [kcal/mol]        2.479 [kJ/mol]       0.00094418 [Eh]
    Vibrational H          18.213 [kcal/mol]       76.201 [kJ/mol]       0.02902350 [Eh]
  Correction H             20.286 [kcal/mol]       84.878 [kJ/mol]       0.03232814 [Eh]
  Total H, Enthalpy at  298.15 [K]                                     -77.32895644 [Eh]

  Gibbs free energy, G = H - T * S
    Electronic G            0.000 [kcal/mol]        0.000 [kJ/mol]       0.00000000 [Eh]
    Translational G        -9.164 [kcal/mol]      -38.342 [kJ/mol]      -0.01460386 [Eh]
    Rotational G           -2.673 [kcal/mol]      -11.183 [kJ/mol]      -0.00425956 [Eh]
    Vibrational G          17.080 [kcal/mol]       71.464 [kJ/mol]       0.02721907 [Eh]
  Correction G              5.243 [kcal/mol]       21.938 [kJ/mol]       0.00835565 [Eh]
  Total G, Free enthalpy at  298.15 [K]                                -77.35292893 [Eh]

*** Psi4 exiting successfully. Buy a developer a beer!
