                               Psi4 1.3.2 release

  ==> Input File <==

--------------------------------------------------------------------------
set basis  cc-pVDZ
molecule {
0 1
   O        0.00000        0.00000        0.49152
   C        0.00000        0.00000       -0.65516
}
energy('m06-2x')
frequencies('m06-2x')
--------------------------------------------------------------------------

    Molecular point group: c2v
  Charge       = 0
  Multiplicity = 1
  Basis Set: CC-PVDZ
    Blend: CC-PVDZ
  Basis Set: (CC-PVDZ AUX)
    Blend: CC-PVDZ-JKFIT
  @DF-RKS Final Energy:  -113.28731110072849
    Total Energy =                       -113.2873111007284876
    Molecular point group: c2v
  Basis Set: CC-PVDZ
    Blend: CC-PVDZ
  Basis Set: (CC-PVDZ AUX)
    Blend: CC-PVDZ-JKFIT
  @DF-RKS Final Energy:  -113.28731110078908
    Total Energy =                       -113.2873111007890827
  Basis Set: CC-PVDZ
    Blend: CC-PVDZ
  Basis Set: (CC-PVDZ AUX)
    Blend: CC-PVDZ-JKFIT
  Basis Set: CC-PVDZ
    Blend: CC-PVDZ
  Basis Set: (CC-PVDZ AUX)
    Blend: CC-PVDZ-JKFIT
  @DF-RKS Final Energy:  -113.28731110078908
    Total Energy =                       -113.2873111007890827
  Basis Set: CC-PVDZ
  @DF-RKS Final Energy:  -113.28739339455760
    Total Energy =                       -113.2873933945575970
  @DF-RKS Final Energy:  -113.28722447551422
    Total Energy =                       -113.2872244755142219
  Basis Set: (CC-PVDZ AUX)
    Blend: CC-PVDZ-JKFIT
  Basis Set: CC-PVDZ
    Blend: CC-PVDZ
  Basis Set: (CC-PVDZ AUX)
    Blend: CC-PVDZ-JKFIT
  @DF-RKS Final Energy:  -113.28731106357823
    Total Energy =                       -113.2873110635782297
  Basis Set: CC-PVDZ
    Blend: CC-PVDZ
  Basis Set: (CC-PVDZ AUX)
    Blend: CC-PVDZ-JKFIT
    Molecular point group: cs
  Charge       = 0
  Multiplicity = 1
  Basis Set: CC-PVDZ
    Blend: CC-PVDZ
  Basis Set: (CC-PVDZ AUX)
    Blend: CC-PVDZ-JKFIT

    Orbital Energies [Eh]
    ---------------------

    Doubly Occupied:

       1Ap   -19.744026     2Ap   -10.670307     3Ap    -1.276485
       4Ap    -0.664468     1App   -0.539224     5Ap    -0.539224
       6Ap    -0.441248

  @DF-RKS Final Energy:  -113.28731106357598

   => Energetics <=

    Nuclear Repulsion Energy =             22.1513379928885605
    One-Electron Energy =                -197.6062782007267060
    Two-Electron Energy =                  68.8329450613667291
    DFT Exchange-Correlation Energy =      -6.6653159171045653
    Empirical Dispersion Energy =           0.0000000000000000
    VV10 Nonlocal Energy =                  0.0000000000000000
    Total Energy =                       -113.2873110635759843

  Dipole Moment: [D]
     X:     0.0000      Y:    -0.0000      Z:     0.0475     Total:     0.0475

    Molecular point group: cs

    Geometry (in Angstrom), charge = 0, multiplicity = 1:

       Center              X                  Y                   Z               Mass
    ------------   -----------------  -----------------  -----------------  -----------------
         O            0.000000000000    -0.000433142923     0.491523556581    15.994914619570
         C            0.000000000000     0.000577340340    -0.655156443419    12.000000000000

  Basis Set: CC-PVDZ
    Blend: CC-PVDZ
  Basis Set: (CC-PVDZ AUX)
    Blend: CC-PVDZ-JKFIT

  -Total Gradient:
     Atom            X                  Y                   Z
    ------   -----------------  -----------------  -----------------
       1        0.000000000000    -0.000038952791     0.044202994398
       2        0.000000000000     0.000038884187    -0.044125143981

  Vibration                       4                   5                   6
  Freq [cm^-1]                 280.2521            280.2521           2138.0442
  Irrep                           B1                  B2                  A1
  Reduced mass [u]             13.4388             13.4388             13.4388
  Force const [mDyne/A]         0.6219              0.6219             36.1945

  ==> Thermochemistry Components <==

  Entropy, S
    Electronic S            0.000 [cal/(mol K)]        0.000 [J/(mol K)]       0.00000000 [mEh/K] (multiplicity = 1)
    Translational S        35.923 [cal/(mol K)]      150.302 [J/(mol K)]       0.05724692 [mEh/K] (mol. weight = 27.9949 [u], P = 101325.00 [Pa])
    Rotational S           11.343 [cal/(mol K)]       47.458 [J/(mol K)]       0.01807582 [mEh/K] (symmetry no. = 1)
    Vibrational S           3.065 [cal/(mol K)]       12.824 [J/(mol K)]       0.00488439 [mEh/K]
  Total S                  50.331 [cal/(mol K)]      210.584 [J/(mol K)]       0.08020714 [mEh/K]
  Correction S              0.000 [cal/(mol K)]        0.000 [J/(mol K)]       0.00000000 [mEh/K]

  Constant volume heat capacity, Cv
    Electronic Cv           0.000 [cal/(mol K)]        0.000 [J/(mol K)]       0.00000000 [mEh/K]
    Translational Cv        2.981 [cal/(mol K)]       12.472 [J/(mol K)]       0.00475022 [mEh/K]
    Rotational Cv           1.987 [cal/(mol K)]        8.314 [J/(mol K)]       0.00316681 [mEh/K]
    Vibrational Cv          3.427 [cal/(mol K)]       14.340 [J/(mol K)]       0.00546167 [mEh/K]
  Total Cv                  8.395 [cal/(mol K)]       35.126 [J/(mol K)]       0.01337870 [mEh/K]
  Correction Cv             0.000 [cal/(mol K)]        0.000 [J/(mol K)]       0.00000000 [mEh/K]

  Constant pressure heat capacity, Cp
    Electronic Cp           0.000 [cal/(mol K)]        0.000 [J/(mol K)]       0.00000000 [mEh/K]
    Translational Cp        4.968 [cal/(mol K)]       20.786 [J/(mol K)]       0.00791703 [mEh/K]
    Rotational Cp           1.987 [cal/(mol K)]        8.314 [J/(mol K)]       0.00316681 [mEh/K]
    Vibrational Cp          3.427 [cal/(mol K)]       14.340 [J/(mol K)]       0.00546167 [mEh/K]
  Total Cp                 10.382 [cal/(mol K)]       43.440 [J/(mol K)]       0.01654551 [mEh/K]
  Correction Cp             0.000 [cal/(mol K)]        0.000 [J/(mol K)]       0.00000000 [mEh/K]

  ==> Thermochemistry Energy Analysis <==

  Raw electronic energy, E0
  Total E0, Electronic energy at well bottom at 0 [K]                 -113.28731110 [Eh]

  Zero-point energy, ZPE_vib = Sum_i nu_i / 2
    Electronic ZPE          0.000 [kcal/mol]        0.000 [kJ/mol]       0.00000000 [Eh]
    Translational ZPE       0.000 [kcal/mol]        0.000 [kJ/mol]       0.00000000 [Eh]
    Rotational ZPE          0.000 [kcal/mol]        0.000 [kJ/mol]       0.00000000 [Eh]
    Vibrational ZPE         3.858 [kcal/mol]       16.141 [kJ/mol]       0.00614775 [Eh]        1349.274 [cm^-1]
  Correction ZPE            3.858 [kcal/mol]       16.141 [kJ/mol]       0.00614775 [Eh]        1349.274 [cm^-1]
  Total ZPE, Electronic energy at 0 [K]                               -113.28116336 [Eh]

  Thermal Energy, E (includes ZPE)
    Electronic E            0.000 [kcal/mol]        0.000 [kJ/mol]       0.00000000 [Eh]
    Translational E         0.889 [kcal/mol]        3.718 [kJ/mol]       0.00141628 [Eh]
    Rotational E            0.592 [kcal/mol]        2.479 [kJ/mol]       0.00094418 [Eh]
    Vibrational E           4.417 [kcal/mol]       18.481 [kJ/mol]       0.00703893 [Eh]
  Correction E              5.898 [kcal/mol]       24.678 [kJ/mol]       0.00939939 [Eh]
  Total E, Electronic energy at  298.15 [K]                           -113.27791171 [Eh]

  Enthalpy, H_trans = E_trans + k_B * T
    Electronic H            0.000 [kcal/mol]        0.000 [kJ/mol]       0.00000000 [Eh]
    Translational H         1.481 [kcal/mol]        6.197 [kJ/mol]       0.00236046 [Eh]
    Rotational H            0.592 [kcal/mol]        2.479 [kJ/mol]       0.00094418 [Eh]
    Vibrational H           4.417 [kcal/mol]       18.481 [kJ/mol]       0.00703893 [Eh]
  Correction H              6.491 [kcal/mol]       27.157 [kJ/mol]       0.01034357 [Eh]
  Total H, Enthalpy at  298.15 [K]                                    -113.27696753 [Eh]

  Gibbs free energy, G = H - T * S
    Electronic G            0.000 [kcal/mol]        0.000 [kJ/mol]       0.00000000 [Eh]
    Translational G        -9.229 [kcal/mol]      -38.615 [kJ/mol]      -0.01470771 [Eh]
    Rotational G           -2.789 [kcal/mol]      -11.671 [kJ/mol]      -0.00444512 [Eh]
    Vibrational G           3.503 [kcal/mol]       14.657 [kJ/mol]       0.00558264 [Eh]
  Correction G             -8.515 [kcal/mol]      -35.629 [kJ/mol]      -0.01357019 [Eh]
  Total G, Free enthalpy at  298.15 [K]                               -113.30088129 [Eh]

*** Psi4 exiting successfully. Buy a developer a beer!
