                               Psi4 1.3.2 release

  ==> Input File <==

--------------------------------------------------------------------------
set basis  6-31G
molecule {
0 1
   C        0.32153        0.81326        0.00000
   C       -0.86505       -0.12817        0.00000
   C        0.54353       -0.68508        0.00000
   H        0.53795        1.36069       -0.92039
   H        0.53795        1.36069        0.92039
   H       -1.44742       -0.21449        0.92034
   H       -1.44742       -0.21449       -0.92034
   H        0.90937       -1.14629       -0.92037
   H        0.90937       -1.14629        0.92037
}
energy('m06-2x')
frequencies('m06-2x')
--------------------------------------------------------------------------

    Molecular point group: cs
  Charge       = 0
  Multiplicity = 1
  Basis Set: 6-31G
    Blend: 6-31G
  Basis Set: (6-31G AUX)
    Blend: CC-PVDZ-JKFIT
  @DF-RKS Final Energy:  -117.79945808787164
    Total Energy =                       -117.7994580878716420
    Molecular point group: cs
  Basis Set: 6-31G
    Blend: 6-31G
  Basis Set: (6-31G AUX)
    Blend: CC-PVDZ-JKFIT
  @DF-RKS Final Energy:  -117.79945808788771
    Total Energy =                       -117.7994580878877144
  Basis Set: 6-31G
    Blend: 6-31G
  Basis Set: (6-31G AUX)
    Blend: CC-PVDZ-JKFIT
  Basis Set: 6-31G
    Blend: 6-31G
  Basis Set: (6-31G AUX)
    Blend: CC-PVDZ-JKFIT
  @DF-RKS Final Energy:  -117.79945808788817
    Total Energy =                       -117.7994580878881692
  Basis Set: 6-31G
  @DF-RKS Final Energy:  -117.79946166866021
    Total Energy =                       -117.7994616686602143
  @DF-RKS Final Energy:  -117.79946841969490
    Total Energy =                       -117.7994684196949038
  @DF-RKS Final Energy:  -117.79945109857253
    Total Energy =                       -117.7994510985725327
  @DF-RKS Final Energy:  -117.79945985618141
    Total Energy =                       -117.7994598561814144
  @DF-RKS Final Energy:  -117.79946246569936
    Total Energy =                       -117.7994624656993636
  @DF-RKS Final Energy:  -117.79945339293893
    Total Energy =                       -117.7994533929389291
  @DF-RKS Final Energy:  -117.79946197912142
    Total Energy =                       -117.7994619791214177
  @DF-RKS Final Energy:  -117.79946753765331
    Total Energy =                       -117.7994675376533138
  @DF-RKS Final Energy:  -117.79946139129247
    Total Energy =                       -117.7994613912924677
  @DF-RKS Final Energy:  -117.79946124989428
    Total Energy =                       -117.7994612498942786
  @DF-RKS Final Energy:  -117.79946197696788
    Total Energy =                       -117.7994619769678621
  @DF-RKS Final Energy:  -117.79945375679206
    Total Energy =                       -117.7994537567920617
  @DF-RKS Final Energy:  -117.79947409968550
    Total Energy =                       -117.7994740996854972
  @DF-RKS Final Energy:  -117.79945451660960
    Total Energy =                       -117.7994545166096003
  @DF-RKS Final Energy:  -117.79947677595264
    Total Energy =                       -117.7994767759526411
  @DF-RKS Final Energy:  -117.79943828642469
    Total Energy =                       -117.7994382864246887
  @DF-RKS Final Energy:  -117.79940820067536
    Total Energy =                       -117.7994082006753587
  @DF-RKS Final Energy:  -117.79950095163667
    Total Energy =                       -117.7995009516366736
  @DF-RKS Final Energy:  -117.79944623974430
    Total Energy =                       -117.7994462397442987
  @DF-RKS Final Energy:  -117.79948927330274
    Total Energy =                       -117.7994892733027399
  @DF-RKS Final Energy:  -117.79950094489574
    Total Energy =                       -117.7995009448957546
  @DF-RKS Final Energy:  -117.79940820778309
    Total Energy =                       -117.7994082077830882
  @DF-RKS Final Energy:  -117.79940826001503
    Total Energy =                       -117.7994082600150278
  @DF-RKS Final Energy:  -117.79950088647797
    Total Energy =                       -117.7995008864779720
  @DF-RKS Final Energy:  -117.79945618532052
    Total Energy =                       -117.7994561853205226
  @DF-RKS Final Energy:  -117.79945590795595
    Total Energy =                       -117.7994559079559451
  @DF-RKS Final Energy:  -117.79945511128450
    Total Energy =                       -117.7994551112845016
  @DF-RKS Final Energy:  -117.79945747231156
    Total Energy =                       -117.7994574723115591
  @DF-RKS Final Energy:  -117.79945568077974
    Total Energy =                       -117.7994556807797437
  @DF-RKS Final Energy:  -117.79945637056784
    Total Energy =                       -117.7994563705678388
  @DF-RKS Final Energy:  -117.79945573035111
    Total Energy =                       -117.7994557303511129
  Basis Set: (6-31G AUX)
    Blend: CC-PVDZ-JKFIT
  Basis Set: 6-31G
    Blend: 6-31G
  Basis Set: (6-31G AUX)
    Blend: CC-PVDZ-JKFIT
  @DF-RKS Final Energy:  -117.79945743533878
    Total Energy =                       -117.7994574353387804
  Basis Set: 6-31G
    Blend: 6-31G
  Basis Set: (6-31G AUX)
    Blend: CC-PVDZ-JKFIT
    Molecular point group: c1
  Charge       = 0
  Multiplicity = 1
  Basis Set: 6-31G
    Blend: 6-31G
  Basis Set: (6-31G AUX)
    Blend: CC-PVDZ-JKFIT

    Orbital Energies [Eh]
    ---------------------

    Doubly Occupied:

       1A    -10.540455     2A    -10.539989     3A    -10.539983
       4A     -0.946329     5A     -0.672684     6A     -0.672669
       7A     -0.563877     8A     -0.525814     9A     -0.420967
      10A     -0.420946    11A     -0.345873    12A     -0.345851

  @DF-RKS Final Energy:  -117.79945519205968

   => Energetics <=

    Nuclear Repulsion Energy =             75.2814718714328848
    One-Electron Energy =                -305.7542934034976270
    Two-Electron Energy =                 121.5845052976910239
    DFT Exchange-Correlation Energy =      -8.9111389576859423
    Empirical Dispersion Energy =           0.0000000000000000
    VV10 Nonlocal Energy =                  0.0000000000000000
    Total Energy =                       -117.7994551920596678

  Dipole Moment: [D]
     X:     0.0002      Y:    -0.0004      Z:    -0.0007     Total:     0.0008

    Molecular point group: c1

    Geometry (in Angstrom), charge = 0, multiplicity = 1:

       Center              X                  Y                   Z               Mass
    ------------   -----------------  -----------------  -----------------  -----------------
         C            0.321531939855     0.813261460475     0.000000000000    12.000000000000
         C           -0.865048060145    -0.128168539525     0.000000000000    12.000000000000
         C            0.543531939855    -0.685078539525     0.000000000000    12.000000000000
         H            0.537951939855     1.360691460475    -0.920390000000     1.007825032230
         H            0.537951939855     1.360691460475     0.920390000000     1.007825032230
         H           -1.447418060145    -0.214488539525     0.919737951237     1.007825032230
         H           -1.447418060145    -0.214488539525    -0.920942048763     1.007825032230
         H            0.907830274543    -1.145679013968    -0.919767951237     1.007825032230
         H            0.910913605168    -1.146898065083     0.920972048763     1.007825032230

  Basis Set: 6-31G
    Blend: 6-31G
  Basis Set: (6-31G AUX)
    Blend: CC-PVDZ-JKFIT

  -Total Gradient:
     Atom            X                  Y                   Z
    ------   -----------------  -----------------  -----------------
       1       -0.001042534858    -0.002673570027     0.000001572074
       2        0.002882338160     0.000434050867     0.000438148329
       3       -0.001795524183     0.002237204843    -0.001241976937
       4        0.000914322358     0.002307048471    -0.006596798821
       5        0.000918789549     0.002318726793     0.006594509634
       6       -0.002289036357    -0.000375707342     0.006297719599
       7       -0.002642853768    -0.000385440389    -0.006861439683
       8        0.001177196154    -0.001604745201    -0.005892754563
       9        0.001926069611    -0.002343916425     0.007261374674

  Vibration                       7                   8                   9
  Freq [cm^-1]                 828.8950            831.3974            906.9362
  Irrep                          App                 App                  Ap
  Reduced mass [u]              1.0202              1.0205              3.6593
  Force const [mDyne/A]         0.4130              0.4156              1.7734

  Vibration                       10                  11                  12
  Freq [cm^-1]                 924.3645            927.9374           1138.7288
  Irrep                           Ap                 App                  Ap
  Reduced mass [u]              3.9069              1.0450              1.2828
  Force const [mDyne/A]         1.9669              0.5301              0.9800

  Vibration                       13                  14                  15
  Freq [cm^-1]                1147.6352           1191.6297           1197.4391
  Irrep                           Ap                  Ap                 App
  Reduced mass [u]              1.2442              1.4242              1.0079
  Force const [mDyne/A]         0.9655              1.1916              0.8515

  Vibration                       16                  17                  18
  Freq [cm^-1]                1247.2413           1261.7557           1262.6467
  Irrep                           Ap                 App                 App
  Reduced mass [u]              2.8501              1.4569              1.4564
  Force const [mDyne/A]         2.6123              1.3666              1.3681

  Vibration                       19                  20                  21
  Freq [cm^-1]                1522.8646           1532.9452           1568.1147
  Irrep                           Ap                  Ap                  Ap
  Reduced mass [u]              1.0885              1.0889              1.2742
  Force const [mDyne/A]         1.4873              1.5076              1.8460

  Vibration                       22                  23                  24
  Freq [cm^-1]                3108.6381           3109.7980           3118.5399
  Irrep                           Ap                  Ap                  Ap
  Reduced mass [u]              1.0510              1.0510              1.0664
  Force const [mDyne/A]         5.9843              5.9886              6.1106

  Vibration                       25                  26                  27
  Freq [cm^-1]                3190.0872           3190.4964           3211.3044
  Irrep                          App                 App                 App
  Reduced mass [u]              1.1179              1.1177              1.1151
  Force const [mDyne/A]         6.7025              6.7034              6.7751

  ==> Thermochemistry Components <==

  Entropy, S
    Electronic S            0.000 [cal/(mol K)]        0.000 [J/(mol K)]       0.00000000 [mEh/K] (multiplicity = 1)
    Translational S        37.135 [cal/(mol K)]      155.375 [J/(mol K)]       0.05917914 [mEh/K] (mol. weight = 42.0470 [u], P = 101325.00 [Pa])
    Rotational S           21.699 [cal/(mol K)]       90.789 [J/(mol K)]       0.03457982 [mEh/K] (symmetry no. = 1)
    Vibrational S           1.073 [cal/(mol K)]        4.487 [J/(mol K)]       0.00170917 [mEh/K]
  Total S                  59.907 [cal/(mol K)]      250.652 [J/(mol K)]       0.09546813 [mEh/K]
  Correction S              0.000 [cal/(mol K)]        0.000 [J/(mol K)]       0.00000000 [mEh/K]

  Constant volume heat capacity, Cv
    Electronic Cv           0.000 [cal/(mol K)]        0.000 [J/(mol K)]       0.00000000 [mEh/K]
    Translational Cv        2.981 [cal/(mol K)]       12.472 [J/(mol K)]       0.00475022 [mEh/K]
    Rotational Cv           2.981 [cal/(mol K)]       12.472 [J/(mol K)]       0.00475022 [mEh/K]
    Vibrational Cv          4.240 [cal/(mol K)]       17.739 [J/(mol K)]       0.00675628 [mEh/K]
  Total Cv                 10.201 [cal/(mol K)]       42.682 [J/(mol K)]       0.01625671 [mEh/K]
  Correction Cv             0.000 [cal/(mol K)]        0.000 [J/(mol K)]       0.00000000 [mEh/K]

  Constant pressure heat capacity, Cp
    Electronic Cp           0.000 [cal/(mol K)]        0.000 [J/(mol K)]       0.00000000 [mEh/K]
    Translational Cp        4.968 [cal/(mol K)]       20.786 [J/(mol K)]       0.00791703 [mEh/K]
    Rotational Cp           2.981 [cal/(mol K)]       12.472 [J/(mol K)]       0.00475022 [mEh/K]
    Vibrational Cp          4.240 [cal/(mol K)]       17.739 [J/(mol K)]       0.00675628 [mEh/K]
  Total Cp                 12.188 [cal/(mol K)]       50.996 [J/(mol K)]       0.01942352 [mEh/K]
  Correction Cp             0.000 [cal/(mol K)]        0.000 [J/(mol K)]       0.00000000 [mEh/K]

  ==> Thermochemistry Energy Analysis <==

  Raw electronic energy, E0
  Total E0, Electronic energy at well bottom at 0 [K]                 -117.79945809 [Eh]

  Zero-point energy, ZPE_vib = Sum_i nu_i / 2
    Electronic ZPE          0.000 [kcal/mol]        0.000 [kJ/mol]       0.00000000 [Eh]
    Translational ZPE       0.000 [kcal/mol]        0.000 [kJ/mol]       0.00000000 [Eh]
    Rotational ZPE          0.000 [kcal/mol]        0.000 [kJ/mol]       0.00000000 [Eh]
    Vibrational ZPE        52.064 [kcal/mol]      217.836 [kJ/mol]       0.08296949 [Eh]       18209.698 [cm^-1]
  Correction ZPE           52.064 [kcal/mol]      217.836 [kJ/mol]       0.08296949 [Eh]       18209.698 [cm^-1]
  Total ZPE, Electronic energy at 0 [K]                               -117.71648860 [Eh]

  Thermal Energy, E (includes ZPE)
    Electronic E            0.000 [kcal/mol]        0.000 [kJ/mol]       0.00000000 [Eh]
    Translational E         0.889 [kcal/mol]        3.718 [kJ/mol]       0.00141628 [Eh]
    Rotational E            0.889 [kcal/mol]        3.718 [kJ/mol]       0.00141628 [Eh]
    Vibrational E          52.327 [kcal/mol]      218.937 [kJ/mol]       0.08338888 [Eh]
  Correction E             54.105 [kcal/mol]      226.374 [kJ/mol]       0.08622144 [Eh]
  Total E, Electronic energy at  298.15 [K]                           -117.71323665 [Eh]

  Enthalpy, H_trans = E_trans + k_B * T
    Electronic H            0.000 [kcal/mol]        0.000 [kJ/mol]       0.00000000 [Eh]
    Translational H         1.481 [kcal/mol]        6.197 [kJ/mol]       0.00236046 [Eh]
    Rotational H            0.889 [kcal/mol]        3.718 [kJ/mol]       0.00141628 [Eh]
    Vibrational H          52.327 [kcal/mol]      218.937 [kJ/mol]       0.08338888 [Eh]
  Correction H             54.697 [kcal/mol]      228.853 [kJ/mol]       0.08716562 [Eh]
  Total H, Enthalpy at  298.15 [K]                                    -117.71229247 [Eh]

  Gibbs free energy, G = H - T * S
    Electronic G            0.000 [kcal/mol]        0.000 [kJ/mol]       0.00000000 [Eh]
    Translational G        -9.591 [kcal/mol]      -40.128 [kJ/mol]      -0.01528380 [Eh]
    Rotational G           -5.581 [kcal/mol]      -23.350 [kJ/mol]      -0.00889370 [Eh]
    Vibrational G          52.008 [kcal/mol]      217.600 [kJ/mol]       0.08287930 [Eh]
  Correction G             36.836 [kcal/mol]      154.122 [kJ/mol]       0.05870180 [Eh]
  Total G, Free enthalpy at  298.15 [K]                               -117.74075629 [Eh]

*** Psi4 exiting successfully. Buy a developer a beer!
