                               Psi4 1.3.2 release

  ==> Input File <==

--------------------------------------------------------------------------
set basis  6-31++G**
molecule {
0 1
   O        0.00000        0.00000        0.49152
   C        0.00000        0.00000       -0.65516
}
energy('m06-2x')
frequencies('m06-2x')
--------------------------------------------------------------------------

    Molecular point group: c2v
  Charge       = 0
  Multiplicity = 1
  Basis Set: 6-31++G**
    Blend: 6-31++G**
  Basis Set: (6-31++G** AUX)
    Blend: AUG-CC-PVDZ-JKFIT
  @DF-RKS Final Energy:  -113.27628453440505
    Total Energy =                       -113.2762845344050504
    Molecular point group: c2v
  Basis Set: 6-31++G**
    Blend: 6-31++G**
  Basis Set: (6-31++G** AUX)
    Blend: AUG-CC-PVDZ-JKFIT
  @DF-RKS Final Energy:  -113.27628453451572
    Total Energy =                       -113.2762845345157245
  Basis Set: 6-31++G**
    Blend: 6-31++G**
  Basis Set: (6-31++G** AUX)
    Blend: AUG-CC-PVDZ-JKFIT
  Basis Set: 6-31++G**
    Blend: 6-31++G**
  Basis Set: (6-31++G** AUX)
    Blend: AUG-CC-PVDZ-JKFIT
  @DF-RKS Final Energy:  -113.27628453451572
    Total Energy =                       -113.2762845345157245
  Basis Set: 6-31++G**
  @DF-RKS Final Energy:  -113.27635499818635
    Total Energy =                       -113.2763549981863491
  @DF-RKS Final Energy:  -113.27620967033387
    Total Energy =                       -113.2762096703338699
  Basis Set: (6-31++G** AUX)
    Blend: AUG-CC-PVDZ-JKFIT
  Basis Set: 6-31++G**
    Blend: 6-31++G**
  Basis Set: (6-31++G** AUX)
    Blend: AUG-CC-PVDZ-JKFIT
  @DF-RKS Final Energy:  -113.27628450247005
    Total Energy =                       -113.2762845024700482
  Basis Set: 6-31++G**
    Blend: 6-31++G**
  Basis Set: (6-31++G** AUX)
    Blend: AUG-CC-PVDZ-JKFIT
    Molecular point group: cs
  Charge       = 0
  Multiplicity = 1
  Basis Set: 6-31++G**
    Blend: 6-31++G**
  Basis Set: (6-31++G** AUX)
    Blend: AUG-CC-PVDZ-JKFIT

    Orbital Energies [Eh]
    ---------------------

    Doubly Occupied:

       1Ap   -19.761896     2Ap   -10.681240     3Ap    -1.285777
       4Ap    -0.671322     5Ap    -0.548928     1App   -0.548928
       6Ap    -0.451645

  @DF-RKS Final Energy:  -113.27628450246583

   => Energetics <=

    Nuclear Repulsion Energy =             22.1513379928885605
    One-Electron Energy =                -197.4464662549215177
    Two-Electron Energy =                  68.6647025120701500
    DFT Exchange-Correlation Energy =      -6.6458587525030115
    Empirical Dispersion Energy =           0.0000000000000000
    VV10 Nonlocal Energy =                  0.0000000000000000
    Total Energy =                       -113.2762845024658276

  Dipole Moment: [D]
     X:     0.0000      Y:     0.0001      Z:    -0.0718     Total:     0.0718

    Molecular point group: cs

    Geometry (in Angstrom), charge = 0, multiplicity = 1:

       Center              X                  Y                   Z               Mass
    ------------   -----------------  -----------------  -----------------  -----------------
         O            0.000000000000    -0.000433142923     0.491523556581    15.994914619570
         C            0.000000000000     0.000577340340    -0.655156443419    12.000000000000

  Basis Set: 6-31++G**
    Blend: 6-31++G**
  Basis Set: (6-31++G** AUX)
    Blend: AUG-CC-PVDZ-JKFIT

  -Total Gradient:
     Atom            X                  Y                   Z
    ------   -----------------  -----------------  -----------------
       1        0.000000000000    -0.000033456842     0.037966280992
       2        0.000000000000     0.000033456339    -0.037965709669

  Vibration                       4                   5                   6
  Freq [cm^-1]                 259.8597            259.8597           2155.8173
  Irrep                           B2                  B1                  A1
  Reduced mass [u]             13.4388             13.4388             13.4388
  Force const [mDyne/A]         0.5347              0.5347             36.7988

  ==> Thermochemistry Components <==

  Entropy, S
    Electronic S            0.000 [cal/(mol K)]        0.000 [J/(mol K)]       0.00000000 [mEh/K] (multiplicity = 1)
    Translational S        35.923 [cal/(mol K)]      150.302 [J/(mol K)]       0.05724692 [mEh/K] (mol. weight = 27.9949 [u], P = 101325.00 [Pa])
    Rotational S           11.343 [cal/(mol K)]       47.458 [J/(mol K)]       0.01807582 [mEh/K] (symmetry no. = 1)
    Vibrational S           3.326 [cal/(mol K)]       13.916 [J/(mol K)]       0.00530050 [mEh/K]
  Total S                  50.592 [cal/(mol K)]      211.676 [J/(mol K)]       0.08062325 [mEh/K]
  Correction S              0.000 [cal/(mol K)]        0.000 [J/(mol K)]       0.00000000 [mEh/K]

  Constant volume heat capacity, Cv
    Electronic Cv           0.000 [cal/(mol K)]        0.000 [J/(mol K)]       0.00000000 [mEh/K]
    Translational Cv        2.981 [cal/(mol K)]       12.472 [J/(mol K)]       0.00475022 [mEh/K]
    Rotational Cv           1.987 [cal/(mol K)]        8.314 [J/(mol K)]       0.00316681 [mEh/K]
    Vibrational Cv          3.499 [cal/(mol K)]       14.638 [J/(mol K)]       0.00557544 [mEh/K]
  Total Cv                  8.467 [cal/(mol K)]       35.424 [J/(mol K)]       0.01349247 [mEh/K]
  Correction Cv             0.000 [cal/(mol K)]        0.000 [J/(mol K)]       0.00000000 [mEh/K]

  Constant pressure heat capacity, Cp
    Electronic Cp           0.000 [cal/(mol K)]        0.000 [J/(mol K)]       0.00000000 [mEh/K]
    Translational Cp        4.968 [cal/(mol K)]       20.786 [J/(mol K)]       0.00791703 [mEh/K]
    Rotational Cp           1.987 [cal/(mol K)]        8.314 [J/(mol K)]       0.00316681 [mEh/K]
    Vibrational Cp          3.499 [cal/(mol K)]       14.638 [J/(mol K)]       0.00557544 [mEh/K]
  Total Cp                 10.454 [cal/(mol K)]       43.739 [J/(mol K)]       0.01665928 [mEh/K]
  Correction Cp             0.000 [cal/(mol K)]        0.000 [J/(mol K)]       0.00000000 [mEh/K]

  ==> Thermochemistry Energy Analysis <==

  Raw electronic energy, E0
  Total E0, Electronic energy at well bottom at 0 [K]                 -113.27628453 [Eh]

  Zero-point energy, ZPE_vib = Sum_i nu_i / 2
    Electronic ZPE          0.000 [kcal/mol]        0.000 [kJ/mol]       0.00000000 [Eh]
    Translational ZPE       0.000 [kcal/mol]        0.000 [kJ/mol]       0.00000000 [Eh]
    Rotational ZPE          0.000 [kcal/mol]        0.000 [kJ/mol]       0.00000000 [Eh]
    Vibrational ZPE         3.825 [kcal/mol]       16.003 [kJ/mol]       0.00609532 [Eh]        1337.768 [cm^-1]
  Correction ZPE            3.825 [kcal/mol]       16.003 [kJ/mol]       0.00609532 [Eh]        1337.768 [cm^-1]
  Total ZPE, Electronic energy at 0 [K]                               -113.27018921 [Eh]

  Thermal Energy, E (includes ZPE)
    Electronic E            0.000 [kcal/mol]        0.000 [kJ/mol]       0.00000000 [Eh]
    Translational E         0.889 [kcal/mol]        3.718 [kJ/mol]       0.00141628 [Eh]
    Rotational E            0.592 [kcal/mol]        2.479 [kJ/mol]       0.00094418 [Eh]
    Vibrational E           4.418 [kcal/mol]       18.487 [kJ/mol]       0.00704119 [Eh]
  Correction E              5.900 [kcal/mol]       24.684 [kJ/mol]       0.00940165 [Eh]
  Total E, Electronic energy at  298.15 [K]                           -113.26688289 [Eh]

  Enthalpy, H_trans = E_trans + k_B * T
    Electronic H            0.000 [kcal/mol]        0.000 [kJ/mol]       0.00000000 [Eh]
    Translational H         1.481 [kcal/mol]        6.197 [kJ/mol]       0.00236046 [Eh]
    Rotational H            0.592 [kcal/mol]        2.479 [kJ/mol]       0.00094418 [Eh]
    Vibrational H           4.418 [kcal/mol]       18.487 [kJ/mol]       0.00704119 [Eh]
  Correction H              6.492 [kcal/mol]       27.163 [kJ/mol]       0.01034583 [Eh]
  Total H, Enthalpy at  298.15 [K]                                    -113.26593870 [Eh]

  Gibbs free energy, G = H - T * S
    Electronic G            0.000 [kcal/mol]        0.000 [kJ/mol]       0.00000000 [Eh]
    Translational G        -9.229 [kcal/mol]      -38.615 [kJ/mol]      -0.01470771 [Eh]
    Rotational G           -2.789 [kcal/mol]      -11.671 [kJ/mol]      -0.00444512 [Eh]
    Vibrational G           3.427 [kcal/mol]       14.337 [kJ/mol]       0.00546084 [Eh]
  Correction G             -8.592 [kcal/mol]      -35.948 [kJ/mol]      -0.01369199 [Eh]
  Total G, Free enthalpy at  298.15 [K]                               -113.28997652 [Eh]

*** Psi4 exiting successfully. Buy a developer a beer!
