                               Psi4 1.3.2 release

  ==> Input File <==

--------------------------------------------------------------------------
set basis  6-31G
molecule {
0 1
   O        0.00000        0.00000        0.49152
   C        0.00000        0.00000       -0.65516
}
energy('CCSD')
frequencies('CCSD')
--------------------------------------------------------------------------

    Molecular point group: c2v
  Charge       = 0
  Multiplicity = 1
  Basis Set: 6-31G
    Blend: 6-31G
  @RHF Final Energy:  -112.66662348389984
    Total Energy =                       -112.6666234838998406
      * MP2 total energy                      = -112.882286481875397
      * CCSD total energy                     = -112.878082242285927
    Molecular point group: c2v
  Basis Set: 6-31G
    Blend: 6-31G
  @RHF Final Energy:  -112.66662348389984
    Total Energy =                       -112.6666234838998406
      * MP2 total energy                      = -112.882286482004858
      * CCSD total energy                     = -112.878082245223794
  Basis Set: 6-31G
    Blend: 6-31G
  @RHF Final Energy:  -112.66662348389984
    Total Energy =                       -112.6666234838998406
      * MP2 total energy                      = -112.882286482004858
      * CCSD total energy                     = -112.878082242393276
  Basis Set: 6-31G
    Blend: 6-31G
  @RHF Final Energy:  -112.66669545794514
    Total Energy =                       -112.6666954579451385
      * MP2 total energy                      = -112.882168532786110
      * CCSD total energy                     = -112.878011310416113
  Basis Set: 6-31G
    Blend: 6-31G
  @RHF Final Energy:  -112.66654707952165
    Total Energy =                       -112.6665470795216493
      * MP2 total energy                      = -112.882400098579083
      * CCSD total energy                     = -112.878148746131629
  Basis Set: 6-31G
    Blend: 6-31G
  @RHF Final Energy:  -112.66662345120844
    Total Energy =                       -112.6666234512084372
      * MP2 total energy                      = -112.882286533017464
      * CCSD total energy                     = -112.878082272667911
    Molecular point group: cs
  Charge       = 0
  Multiplicity = 1
  Basis Set: 6-31G
    Blend: 6-31G

    Orbital Energies [Eh]
    ---------------------

    Doubly Occupied:

       1Ap   -20.686361     2Ap   -11.402843     3Ap    -1.547641
       4Ap    -0.795979     1App   -0.634554     5Ap    -0.634554
       6Ap    -0.552491

  @RHF Final Energy:  -112.66662345120839

   => Energetics <=

    Nuclear Repulsion Energy =             22.1513379928885605
    One-Electron Energy =                -197.1270750180139544
    Two-Electron Energy =                  62.3091135739170028
    Total Energy =                       -112.6666234512083946

  Dipole Moment: [D]
     X:     0.0000      Y:     0.0006      Z:    -0.6508     Total:     0.6508

      * MP2 total energy                      = -112.882286533017691
      * CCSD total energy                     = -112.878082272668138
    Molecular point group: cs

    Geometry (in Bohr), charge = 0, multiplicity = 1:

       Center              X                  Y                   Z
    ------------   -----------------  -----------------  -----------------
         O            0.000000000000    -0.000818521498     0.928844906150
         C            0.000000000000     0.001091015123    -1.238066247390

  -Total gradient:
     Atom            X                  Y                   Z
    ------   -----------------  -----------------  -----------------
       1        0.000000000000     0.000031708545    -0.035982341795
       2        0.000000000000    -0.000031708545     0.035982341794

  Vibration                       1                   2                   6
  Freq [cm^-1]                252.9801i           252.9801i           2164.0370
  Irrep                           B2                  B1                  A1
  Reduced mass [u]             13.4388             13.4388             13.4388
  Force const [mDyne/A]        -0.5067             -0.5067             37.0799

  ==> Thermochemistry Components <==

  Entropy, S
    Electronic S            0.000 [cal/(mol K)]        0.000 [J/(mol K)]       0.00000000 [mEh/K] (multiplicity = 1)
    Translational S        35.923 [cal/(mol K)]      150.302 [J/(mol K)]       0.05724692 [mEh/K] (mol. weight = 27.9949 [u], P = 101325.00 [Pa])
    Rotational S           11.343 [cal/(mol K)]       47.458 [J/(mol K)]       0.01807582 [mEh/K] (symmetry no. = 1)
    Vibrational S           0.001 [cal/(mol K)]        0.003 [J/(mol K)]       0.00000106 [mEh/K]
  Total S                  47.266 [cal/(mol K)]      197.763 [J/(mol K)]       0.07532380 [mEh/K]
  Correction S              0.000 [cal/(mol K)]        0.000 [J/(mol K)]       0.00000000 [mEh/K]

  Constant volume heat capacity, Cv
    Electronic Cv           0.000 [cal/(mol K)]        0.000 [J/(mol K)]       0.00000000 [mEh/K]
    Translational Cv        2.981 [cal/(mol K)]       12.472 [J/(mol K)]       0.00475022 [mEh/K]
    Rotational Cv           1.987 [cal/(mol K)]        8.314 [J/(mol K)]       0.00316681 [mEh/K]
    Vibrational Cv          0.006 [cal/(mol K)]        0.026 [J/(mol K)]       0.00001007 [mEh/K]
  Total Cv                  4.974 [cal/(mol K)]       20.813 [J/(mol K)]       0.00792709 [mEh/K]
  Correction Cv             0.000 [cal/(mol K)]        0.000 [J/(mol K)]       0.00000000 [mEh/K]

  Constant pressure heat capacity, Cp
    Electronic Cp           0.000 [cal/(mol K)]        0.000 [J/(mol K)]       0.00000000 [mEh/K]
    Translational Cp        4.968 [cal/(mol K)]       20.786 [J/(mol K)]       0.00791703 [mEh/K]
    Rotational Cp           1.987 [cal/(mol K)]        8.314 [J/(mol K)]       0.00316681 [mEh/K]
    Vibrational Cp          0.006 [cal/(mol K)]        0.026 [J/(mol K)]       0.00001007 [mEh/K]
  Total Cp                  6.962 [cal/(mol K)]       29.127 [J/(mol K)]       0.01109391 [mEh/K]
  Correction Cp             0.000 [cal/(mol K)]        0.000 [J/(mol K)]       0.00000000 [mEh/K]

  ==> Thermochemistry Energy Analysis <==

  Raw electronic energy, E0
  Total E0, Electronic energy at well bottom at 0 [K]                 -112.87808224 [Eh]

  Zero-point energy, ZPE_vib = Sum_i nu_i / 2
    Electronic ZPE          0.000 [kcal/mol]        0.000 [kJ/mol]       0.00000000 [Eh]
    Translational ZPE       0.000 [kcal/mol]        0.000 [kJ/mol]       0.00000000 [Eh]
    Rotational ZPE          0.000 [kcal/mol]        0.000 [kJ/mol]       0.00000000 [Eh]
    Vibrational ZPE         3.094 [kcal/mol]       12.944 [kJ/mol]       0.00493004 [Eh]        1082.019 [cm^-1]
  Correction ZPE            3.094 [kcal/mol]       12.944 [kJ/mol]       0.00493004 [Eh]        1082.019 [cm^-1]
  Total ZPE, Electronic energy at 0 [K]                               -112.87315220 [Eh]

  Thermal Energy, E (includes ZPE)
    Electronic E            0.000 [kcal/mol]        0.000 [kJ/mol]       0.00000000 [Eh]
    Translational E         0.889 [kcal/mol]        3.718 [kJ/mol]       0.00141628 [Eh]
    Rotational E            0.592 [kcal/mol]        2.479 [kJ/mol]       0.00094418 [Eh]
    Vibrational E           3.094 [kcal/mol]       12.945 [kJ/mol]       0.00493033 [Eh]
  Correction E              4.575 [kcal/mol]       19.142 [kJ/mol]       0.00729079 [Eh]
  Total E, Electronic energy at  298.15 [K]                           -112.87079145 [Eh]

  Enthalpy, H_trans = E_trans + k_B * T
    Electronic H            0.000 [kcal/mol]        0.000 [kJ/mol]       0.00000000 [Eh]
    Translational H         1.481 [kcal/mol]        6.197 [kJ/mol]       0.00236046 [Eh]
    Rotational H            0.592 [kcal/mol]        2.479 [kJ/mol]       0.00094418 [Eh]
    Vibrational H           3.094 [kcal/mol]       12.945 [kJ/mol]       0.00493033 [Eh]
  Correction H              5.168 [kcal/mol]       21.621 [kJ/mol]       0.00823497 [Eh]
  Total H, Enthalpy at  298.15 [K]                                    -112.86984727 [Eh]

  Gibbs free energy, G = H - T * S
    Electronic G            0.000 [kcal/mol]        0.000 [kJ/mol]       0.00000000 [Eh]
    Translational G        -9.229 [kcal/mol]      -38.615 [kJ/mol]      -0.01470771 [Eh]
    Rotational G           -2.789 [kcal/mol]      -11.671 [kJ/mol]      -0.00444512 [Eh]
    Vibrational G           3.094 [kcal/mol]       12.944 [kJ/mol]       0.00493001 [Eh]
  Correction G             -8.925 [kcal/mol]      -37.342 [kJ/mol]      -0.01422282 [Eh]
  Total G, Free enthalpy at  298.15 [K]                               -112.89230506 [Eh]

*** Psi4 exiting successfully. Buy a developer a beer!
