                               Psi4 1.3.2 release

  ==> Input File <==

--------------------------------------------------------------------------
set basis  6-31G
molecule {
0 1
   O        0.00000        0.00000        0.49152
   C        0.00000        0.00000       -0.65516
}
energy('MP2')
frequencies('MP2')
--------------------------------------------------------------------------

    Molecular point group: c2v
  Charge       = 0
  Multiplicity = 1
  Basis Set: 6-31G
    Blend: 6-31G
  Basis Set: (6-31G AUX)
    Blend: CC-PVDZ-JKFIT
  @DF-RHF Final Energy:  -112.66651218589797
    Total Energy =                       -112.6665121858979717
  Basis Set: (6-31G AUX)
    Blend: CC-PVDZ-RI
	 Reference Energy          =    -112.6665121858979717 [Eh]
	 Singles Energy            =      -0.0000000000000000 [Eh]
	 Same-Spin Energy          =      -0.0587052496165270 [Eh]
	 Opposite-Spin Energy      =      -0.1569490644543529 [Eh]
	 Correlation Energy        =      -0.2156543140708799 [Eh]
	 Total Energy              =    -112.8821664999688466 [Eh]
	 SCS Total Energy          =    -112.8744194797820342 [Eh]
    Molecular point group: c2v
  Basis Set: 6-31G
    Blend: 6-31G
  Basis Set: (6-31G AUX)
    Blend: CC-PVDZ-JKFIT
  @DF-RHF Final Energy:  -112.66651218589790
    Total Energy =                       -112.6665121858979006
  Basis Set: (6-31G AUX)
  @DF-RHF Final Energy:  -112.66651218589790
    Total Energy =                       -112.6665121858979006
  @DF-RHF Final Energy:  -112.66658407359941
    Total Energy =                       -112.6665840735994095
  @DF-RHF Final Energy:  -112.66643586749716
    Total Energy =                       -112.6664358674971567
  @DF-RHF Final Energy:  -112.66651215328227
    Total Energy =                       -112.6665121532822695
    Molecular point group: cs
  Charge       = 0
  Multiplicity = 1
  Basis Set: 6-31G
    Blend: 6-31G
  Basis Set: (6-31G AUX)
    Blend: CC-PVDZ-JKFIT

    Orbital Energies [Eh]
    ---------------------

    Doubly Occupied:

       1Ap   -20.686368     2Ap   -11.402923     3Ap    -1.547644
       4Ap    -0.795973     1App   -0.634521     5Ap    -0.634521
       6Ap    -0.552514

  @DF-RHF Final Energy:  -112.66651215328898

   => Energetics <=

    Nuclear Repulsion Energy =             22.1513379928885605
    One-Electron Energy =                -197.1267761646848271
    Two-Electron Energy =                  62.3089260185073002
    Total Energy =                       -112.6665121532889771

  Dipole Moment: [D]
     X:     0.0000      Y:     0.0006      Z:    -0.6514     Total:     0.6514

  Basis Set: (6-31G AUX)
    Blend: CC-PVDZ-RI
    Molecular point group: cs

    Geometry (in Angstrom), charge = 0, multiplicity = 1:

       Center              X                  Y                   Z               Mass
    ------------   -----------------  -----------------  -----------------  -----------------
         O            0.000000000000    -0.000433142923     0.491523556581    15.994914619570
         C            0.000000000000     0.000577340340    -0.655156443419    12.000000000000

  Basis Set: 6-31G
    Blend: 6-31G
  Basis Set: (6-31G AUX)
    Blend: CC-PVDZ-JKFIT
  Basis Set: (6-31G AUX)
    Blend: CC-PVDZ-JKFIT
	 Reference Energy          =    -112.6665121532889771 [Eh]
	 Singles Energy            =      -0.0000000000000000 [Eh]
	 Same-Spin Energy          =      -0.0587052758628746 [Eh]
	 Opposite-Spin Energy      =      -0.1569491220333234 [Eh]
	 Correlation Energy        =      -0.2156543978961981 [Eh]
	 Total Energy              =    -112.8821665511851791 [Eh]

	 ================> DF-SCS-MP2 Energies <==================
	-----------------------------------------------------------
	 SCS Same-Spin Scale       =       0.3333333333333333 [-]
	 SCS Opposite-Spin Scale   =       1.2000000000000000 [-]
	 SCS Same-Spin Energy      =      -0.0195684252876249 [Eh]
	 SCS Opposite-Spin Energy  =      -0.1883389464399881 [Eh]
	 SCS Correlation Energy    =      -0.2079073717276130 [Eh]
	 SCS Total Energy          =    -112.8744195250165916 [Eh]
	-----------------------------------------------------------

  -Total Gradient:
     Atom            X                  Y                   Z
    ------   -----------------  -----------------  -----------------
       1        0.000000000000     0.000053459976    -0.060665513273
       2        0.000000000000    -0.000053459976     0.060665513273

  Vibration                       1                   2                   6
  Freq [cm^-1]                328.4828i           328.4828i           2140.0732
  Irrep                           B2                  B1                  A1
  Reduced mass [u]             13.4388             13.4388             13.4388
  Force const [mDyne/A]        -0.8543             -0.8543             36.2632

  ==> Thermochemistry Components <==

  Entropy, S
    Electronic S            0.000 [cal/(mol K)]        0.000 [J/(mol K)]       0.00000000 [mEh/K] (multiplicity = 1)
    Translational S        35.923 [cal/(mol K)]      150.302 [J/(mol K)]       0.05724692 [mEh/K] (mol. weight = 27.9949 [u], P = 101325.00 [Pa])
    Rotational S           11.343 [cal/(mol K)]       47.458 [J/(mol K)]       0.01807582 [mEh/K] (symmetry no. = 1)
    Vibrational S           0.001 [cal/(mol K)]        0.003 [J/(mol K)]       0.00000117 [mEh/K]
  Total S                  47.266 [cal/(mol K)]      197.763 [J/(mol K)]       0.07532392 [mEh/K]
  Correction S              0.000 [cal/(mol K)]        0.000 [J/(mol K)]       0.00000000 [mEh/K]

  Constant volume heat capacity, Cv
    Electronic Cv           0.000 [cal/(mol K)]        0.000 [J/(mol K)]       0.00000000 [mEh/K]
    Translational Cv        2.981 [cal/(mol K)]       12.472 [J/(mol K)]       0.00475022 [mEh/K]
    Rotational Cv           1.987 [cal/(mol K)]        8.314 [J/(mol K)]       0.00316681 [mEh/K]
    Vibrational Cv          0.007 [cal/(mol K)]        0.029 [J/(mol K)]       0.00001105 [mEh/K]
  Total Cv                  4.975 [cal/(mol K)]       20.815 [J/(mol K)]       0.00792808 [mEh/K]
  Correction Cv             0.000 [cal/(mol K)]        0.000 [J/(mol K)]       0.00000000 [mEh/K]

  Constant pressure heat capacity, Cp
    Electronic Cp           0.000 [cal/(mol K)]        0.000 [J/(mol K)]       0.00000000 [mEh/K]
    Translational Cp        4.968 [cal/(mol K)]       20.786 [J/(mol K)]       0.00791703 [mEh/K]
    Rotational Cp           1.987 [cal/(mol K)]        8.314 [J/(mol K)]       0.00316681 [mEh/K]
    Vibrational Cp          0.007 [cal/(mol K)]        0.029 [J/(mol K)]       0.00001105 [mEh/K]
  Total Cp                  6.962 [cal/(mol K)]       29.130 [J/(mol K)]       0.01109489 [mEh/K]
  Correction Cp             0.000 [cal/(mol K)]        0.000 [J/(mol K)]       0.00000000 [mEh/K]

  ==> Thermochemistry Energy Analysis <==

  Raw electronic energy, E0
  Total E0, Electronic energy at well bottom at 0 [K]                 -112.88216650 [Eh]

  Zero-point energy, ZPE_vib = Sum_i nu_i / 2
    Electronic ZPE          0.000 [kcal/mol]        0.000 [kJ/mol]       0.00000000 [Eh]
    Translational ZPE       0.000 [kcal/mol]        0.000 [kJ/mol]       0.00000000 [Eh]
    Rotational ZPE          0.000 [kcal/mol]        0.000 [kJ/mol]       0.00000000 [Eh]
    Vibrational ZPE         3.059 [kcal/mol]       12.800 [kJ/mol]       0.00487545 [Eh]        1070.037 [cm^-1]
  Correction ZPE            3.059 [kcal/mol]       12.800 [kJ/mol]       0.00487545 [Eh]        1070.037 [cm^-1]
  Total ZPE, Electronic energy at 0 [K]                               -112.87729105 [Eh]

  Thermal Energy, E (includes ZPE)
    Electronic E            0.000 [kcal/mol]        0.000 [kJ/mol]       0.00000000 [Eh]
    Translational E         0.889 [kcal/mol]        3.718 [kJ/mol]       0.00141628 [Eh]
    Rotational E            0.592 [kcal/mol]        2.479 [kJ/mol]       0.00094418 [Eh]
    Vibrational E           3.060 [kcal/mol]       12.801 [kJ/mol]       0.00487576 [Eh]
  Correction E              4.541 [kcal/mol]       18.999 [kJ/mol]       0.00723623 [Eh]
  Total E, Electronic energy at  298.15 [K]                           -112.87493027 [Eh]

  Enthalpy, H_trans = E_trans + k_B * T
    Electronic H            0.000 [kcal/mol]        0.000 [kJ/mol]       0.00000000 [Eh]
    Translational H         1.481 [kcal/mol]        6.197 [kJ/mol]       0.00236046 [Eh]
    Rotational H            0.592 [kcal/mol]        2.479 [kJ/mol]       0.00094418 [Eh]
    Vibrational H           3.060 [kcal/mol]       12.801 [kJ/mol]       0.00487576 [Eh]
  Correction H              5.133 [kcal/mol]       21.478 [kJ/mol]       0.00818041 [Eh]
  Total H, Enthalpy at  298.15 [K]                                    -112.87398609 [Eh]

  Gibbs free energy, G = H - T * S
    Electronic G            0.000 [kcal/mol]        0.000 [kJ/mol]       0.00000000 [Eh]
    Translational G        -9.229 [kcal/mol]      -38.615 [kJ/mol]      -0.01470771 [Eh]
    Rotational G           -2.789 [kcal/mol]      -11.671 [kJ/mol]      -0.00444512 [Eh]
    Vibrational G           3.059 [kcal/mol]       12.800 [kJ/mol]       0.00487541 [Eh]
  Correction G             -8.959 [kcal/mol]      -37.485 [kJ/mol]      -0.01427742 [Eh]
  Total G, Free enthalpy at  298.15 [K]                               -112.89644392 [Eh]

*** Psi4 exiting successfully. Buy a developer a beer!
