                               Psi4 1.3.2 release

  ==> Input File <==

--------------------------------------------------------------------------
set basis  6-31+g*
molecule {
0 1
   C       -0.61446        0.00000        0.00000
   C        0.61446        0.00000        0.00000
   H       -1.68923        0.00000        0.00000
   H        1.68923        0.00000        0.00000
}
energy('CCSD')
frequencies('CCSD')
--------------------------------------------------------------------------

    Molecular point group: d2h
  Charge       = 0
  Multiplicity = 1
  Basis Set: 6-31+G*
    Blend: 6-31+G*
  @RHF Final Energy:   -76.81905677876864
    Total Energy =                        -76.8190567787686405
      * MP2 total energy                      =  -77.082621901139348
      * CCSD total energy                     =  -77.097169199520934
    Molecular point group: d2h
  Basis Set: 6-31+G*
    Blend: 6-31+G*
  @RHF Final Energy:   -76.81905677876875
    Total Energy =                        -76.8190567787687542
      * MP2 total energy                      =  -77.082621900951338
      * CCSD total energy                     =  -77.097169200229985
  Basis Set: 6-31+G*
    Blend: 6-31+G*
  @RHF Final Energy:   -76.81905677876875
    Total Energy =                        -76.8190567787687542
      * MP2 total energy                      =  -77.082621900951338
      * CCSD total energy                     =  -77.097169199343796
  Basis Set: 6-31+G*
    Blend: 6-31+G*
  @RHF Final Energy:   -76.81890067643940
    Total Energy =                        -76.8189006764393980
      * MP2 total energy                      =  -77.082592415503100
      * CCSD total energy                     =  -77.097108807401469
  @RHF Final Energy:   -76.81920767428700
    Total Energy =                        -76.8192076742870000
      * MP2 total energy                      =  -77.082646460902609
      * CCSD total energy                     =  -77.097224558465740
  @RHF Final Energy:   -76.81895470992276
    Total Energy =                        -76.8189547099227639
      * MP2 total energy                      =  -77.082577058305020
      * CCSD total energy                     =  -77.097136555107198
  @RHF Final Energy:   -76.81914852809102
    Total Energy =                        -76.8191485280910058
      * MP2 total energy                      =  -77.082656687215248
      * CCSD total energy                     =  -77.097191835324224
  @RHF Final Energy:   -76.81905659757656
    Total Energy =                        -76.8190565975765765
      * MP2 total energy                      =  -77.082621855172263
      * CCSD total energy                     =  -77.097169139826818
  @RHF Final Energy:   -76.81905654612117
    Total Energy =                        -76.8190565461211747
      * MP2 total energy                      =  -77.082621825564715
      * CCSD total energy                     =  -77.097169130391265
  @RHF Final Energy:   -76.81905659757651
    Total Energy =                        -76.8190565975765054
      * MP2 total energy                      =  -77.082621855172320
      * CCSD total energy                     =  -77.097169139826875
  Basis Set: 6-31+G*
    Blend: 6-31+G*
  @RHF Final Energy:   -76.81905654612125
    Total Energy =                        -76.8190565461212458
      * MP2 total energy                      =  -77.082621825564686
      * CCSD total energy                     =  -77.097169130391237
  Basis Set: 6-31+G*
    Blend: 6-31+G*
  @RHF Final Energy:   -76.81905635560808
    Total Energy =                        -76.8190563556080832
      * MP2 total energy                      =  -77.082621612215135
      * CCSD total energy                     =  -77.097168920652649
  Basis Set: 6-31+G*
    Blend: 6-31+G*
  @RHF Final Energy:   -76.81905635560813
    Total Energy =                        -76.8190563556081258
      * MP2 total energy                      =  -77.082621612215064
      * CCSD total energy                     =  -77.097168920652578
    Molecular point group: c2v
  Charge       = 0
  Multiplicity = 1
  Basis Set: 6-31+G*
    Blend: 6-31+G*

    Orbital Energies [Eh]
    ---------------------

    Doubly Occupied:

       1A1   -11.261429     2A1   -11.258249     3A1    -1.024296
       4A1    -0.768772     5A1    -0.677174     1B1    -0.404095
       1B2    -0.404095

  @RHF Final Energy:   -76.81905119290411

   => Energetics <=

    Nuclear Repulsion Energy =             24.3232393838559098
    One-Electron Energy =                -150.6883608573239428
    Two-Electron Energy =                  49.5460702805639244
    Total Energy =                        -76.8190511929041122

  Dipole Moment: [D]
     X:     0.0041      Y:     0.0000      Z:     0.0000     Total:     0.0041

      * MP2 total energy                      =  -77.082616451912344
      * CCSD total energy                     =  -77.097163781833345
    Molecular point group: c2v

    Geometry (in Bohr), charge = 0, multiplicity = 1:

       Center              X                  Y                   Z
    ------------   -----------------  -----------------  -----------------
         C           -1.161445204175     0.000000000000     0.000000000000
         C            1.160877025923     0.000000000000     0.000000000000
         H           -3.188799462353     0.000000000000     0.000000000000
         H            3.195564663461     0.000000000000     0.000000000000

  -Total gradient:
     Atom            X                  Y                   Z
    ------   -----------------  -----------------  -----------------
       1       -0.029840915187     0.000000000000     0.000000000000
       2        0.026885902183     0.000000000000     0.000000000000
       3       -0.002440939403     0.000000000000     0.000000000000
       4        0.005395952406     0.000000000000     0.000000000000

  Vibration                       4                   5                   6
  Freq [cm^-1]                 211.6977            211.6977            476.2162
  Irrep                          B1g                 B2g                 B2g
  Reduced mass [u]              2.0494              2.0494              1.7018
  Force const [mDyne/A]         0.0541              0.0541              0.2274

  Vibration                       7                   8                   9
  Freq [cm^-1]                 476.2162            767.5623            767.5623
  Irrep                          B1g                 B1u                 B2u
  Reduced mass [u]              1.7018              1.0848              1.0848
  Force const [mDyne/A]         0.2274              0.3766              0.3766

  Vibration                       10                  11                  12
  Freq [cm^-1]                1958.8349           3384.1613           3472.9309
  Irrep                           Ag                 B3u                  Ag
  Reduced mass [u]              4.0456              1.0848              1.2072
  Force const [mDyne/A]         9.1459              7.3200              8.5785

  ==> Thermochemistry Components <==

  Entropy, S
    Electronic S            0.000 [cal/(mol K)]        0.000 [J/(mol K)]       0.00000000 [mEh/K] (multiplicity = 1)
    Translational S        35.704 [cal/(mol K)]      149.387 [J/(mol K)]       0.05689862 [mEh/K] (mol. weight = 26.0157 [u], P = 101325.00 [Pa])
    Rotational S           10.952 [cal/(mol K)]       45.824 [J/(mol K)]       0.01745345 [mEh/K] (symmetry no. = 2)
    Vibrational S           5.971 [cal/(mol K)]       24.983 [J/(mol K)]       0.00951545 [mEh/K]
  Total S                  52.628 [cal/(mol K)]      220.194 [J/(mol K)]       0.08386751 [mEh/K]
  Correction S              0.000 [cal/(mol K)]        0.000 [J/(mol K)]       0.00000000 [mEh/K]

  Constant volume heat capacity, Cv
    Electronic Cv           0.000 [cal/(mol K)]        0.000 [J/(mol K)]       0.00000000 [mEh/K]
    Translational Cv        2.981 [cal/(mol K)]       12.472 [J/(mol K)]       0.00475022 [mEh/K]
    Rotational Cv           1.987 [cal/(mol K)]        8.314 [J/(mol K)]       0.00316681 [mEh/K]
    Vibrational Cv          7.677 [cal/(mol K)]       32.121 [J/(mol K)]       0.01223420 [mEh/K]
  Total Cv                 12.645 [cal/(mol K)]       52.907 [J/(mol K)]       0.02015122 [mEh/K]
  Correction Cv             0.000 [cal/(mol K)]        0.000 [J/(mol K)]       0.00000000 [mEh/K]

  Constant pressure heat capacity, Cp
    Electronic Cp           0.000 [cal/(mol K)]        0.000 [J/(mol K)]       0.00000000 [mEh/K]
    Translational Cp        4.968 [cal/(mol K)]       20.786 [J/(mol K)]       0.00791703 [mEh/K]
    Rotational Cp           1.987 [cal/(mol K)]        8.314 [J/(mol K)]       0.00316681 [mEh/K]
    Vibrational Cp          7.677 [cal/(mol K)]       32.121 [J/(mol K)]       0.01223420 [mEh/K]
  Total Cp                 14.632 [cal/(mol K)]       61.221 [J/(mol K)]       0.02331804 [mEh/K]
  Correction Cp             0.000 [cal/(mol K)]        0.000 [J/(mol K)]       0.00000000 [mEh/K]

  ==> Thermochemistry Energy Analysis <==

  Raw electronic energy, E0
  Total E0, Electronic energy at well bottom at 0 [K]                  -77.09716920 [Eh]

  Zero-point energy, ZPE_vib = Sum_i nu_i / 2
    Electronic ZPE          0.000 [kcal/mol]        0.000 [kJ/mol]       0.00000000 [Eh]
    Translational ZPE       0.000 [kcal/mol]        0.000 [kJ/mol]       0.00000000 [Eh]
    Rotational ZPE          0.000 [kcal/mol]        0.000 [kJ/mol]       0.00000000 [Eh]
    Vibrational ZPE        16.764 [kcal/mol]       70.142 [kJ/mol]       0.02671580 [Eh]        5863.440 [cm^-1]
  Correction ZPE           16.764 [kcal/mol]       70.142 [kJ/mol]       0.02671580 [Eh]        5863.440 [cm^-1]
  Total ZPE, Electronic energy at 0 [K]                                -77.07045340 [Eh]

  Thermal Energy, E (includes ZPE)
    Electronic E            0.000 [kcal/mol]        0.000 [kJ/mol]       0.00000000 [Eh]
    Translational E         0.889 [kcal/mol]        3.718 [kJ/mol]       0.00141628 [Eh]
    Rotational E            0.592 [kcal/mol]        2.479 [kJ/mol]       0.00094418 [Eh]
    Vibrational E          17.861 [kcal/mol]       74.729 [kJ/mol]       0.02846294 [Eh]
  Correction E             19.342 [kcal/mol]       80.927 [kJ/mol]       0.03082340 [Eh]
  Total E, Electronic energy at  298.15 [K]                            -77.06634580 [Eh]

  Enthalpy, H_trans = E_trans + k_B * T
    Electronic H            0.000 [kcal/mol]        0.000 [kJ/mol]       0.00000000 [Eh]
    Translational H         1.481 [kcal/mol]        6.197 [kJ/mol]       0.00236046 [Eh]
    Rotational H            0.592 [kcal/mol]        2.479 [kJ/mol]       0.00094418 [Eh]
    Vibrational H          17.861 [kcal/mol]       74.729 [kJ/mol]       0.02846294 [Eh]
  Correction H             19.934 [kcal/mol]       83.406 [kJ/mol]       0.03176758 [Eh]
  Total H, Enthalpy at  298.15 [K]                                     -77.06540162 [Eh]

  Gibbs free energy, G = H - T * S
    Electronic G            0.000 [kcal/mol]        0.000 [kJ/mol]       0.00000000 [Eh]
    Translational G        -9.164 [kcal/mol]      -38.342 [kJ/mol]      -0.01460386 [Eh]
    Rotational G           -2.673 [kcal/mol]      -11.183 [kJ/mol]      -0.00425956 [Eh]
    Vibrational G          16.080 [kcal/mol]       67.281 [kJ/mol]       0.02562591 [Eh]
  Correction G              4.244 [kcal/mol]       17.755 [kJ/mol]       0.00676248 [Eh]
  Total G, Free enthalpy at  298.15 [K]                                -77.09040672 [Eh]

*** Psi4 exiting successfully. Buy a developer a beer!
