                               Psi4 1.3.2 release

  ==> Input File <==

--------------------------------------------------------------------------
set basis  cc-pVDZ
molecule {
0 1
   C       -0.61446        0.00000        0.00000
   C        0.61446        0.00000        0.00000
   H       -1.68923        0.00000        0.00000
   H        1.68923        0.00000        0.00000
}
energy('m06-2x')
frequencies('m06-2x')
--------------------------------------------------------------------------

    Molecular point group: d2h
  Charge       = 0
  Multiplicity = 1
  Basis Set: CC-PVDZ
    Blend: CC-PVDZ
  Basis Set: (CC-PVDZ AUX)
    Blend: CC-PVDZ-JKFIT
  @DF-RKS Final Energy:   -77.29748828612804
    Total Energy =                        -77.2974882861280435
    Molecular point group: d2h
  Basis Set: CC-PVDZ
    Blend: CC-PVDZ
  Basis Set: (CC-PVDZ AUX)
    Blend: CC-PVDZ-JKFIT
  @DF-RKS Final Energy:   -77.29748828614694
    Total Energy =                        -77.2974882861469439
  Basis Set: CC-PVDZ
    Blend: CC-PVDZ
  Basis Set: (CC-PVDZ AUX)
    Blend: CC-PVDZ-JKFIT
  Basis Set: CC-PVDZ
    Blend: CC-PVDZ
  Basis Set: (CC-PVDZ AUX)
    Blend: CC-PVDZ-JKFIT
  @DF-RKS Final Energy:   -77.29748828614694
    Total Energy =                        -77.2974882861469439
  Basis Set: CC-PVDZ
  @DF-RKS Final Energy:   -77.29739411668362
    Total Energy =                        -77.2973941166836340
  @DF-RKS Final Energy:   -77.29757724161888
    Total Energy =                        -77.2975772416188818
  @DF-RKS Final Energy:   -77.29747436124387
    Total Energy =                        -77.2974743612438857
  @DF-RKS Final Energy:   -77.29749196514210
    Total Energy =                        -77.2974919651421146
  @DF-RKS Final Energy:   -77.29748816882179
    Total Energy =                        -77.2974881688217721
  @DF-RKS Final Energy:   -77.29748815985303
    Total Energy =                        -77.2974881598530317
  @DF-RKS Final Energy:   -77.29748816884359
    Total Energy =                        -77.2974881688436000
  @DF-RKS Final Energy:   -77.29748815986450
    Total Energy =                        -77.2974881598644998
  @DF-RKS Final Energy:   -77.29748798908685
    Total Energy =                        -77.2974879890868465
  Basis Set: (CC-PVDZ AUX)
    Blend: CC-PVDZ-JKFIT
  Basis Set: CC-PVDZ
    Blend: CC-PVDZ
  Basis Set: (CC-PVDZ AUX)
    Blend: CC-PVDZ-JKFIT
  @DF-RKS Final Energy:   -77.29748798909878
    Total Energy =                        -77.2974879890987836
  Basis Set: CC-PVDZ
    Blend: CC-PVDZ
  Basis Set: (CC-PVDZ AUX)
    Blend: CC-PVDZ-JKFIT
    Molecular point group: c2v
  Charge       = 0
  Multiplicity = 1
  Basis Set: CC-PVDZ
    Blend: CC-PVDZ
  Basis Set: (CC-PVDZ AUX)
    Blend: CC-PVDZ-JKFIT

    Orbital Energies [Eh]
    ---------------------

    Doubly Occupied:

       1A1   -10.563270     2A1   -10.561104     3A1    -0.838147
       4A1    -0.640646     5A1    -0.554400     1B2    -0.344459
       1B1    -0.344459

  @DF-RKS Final Energy:   -77.29748273260186

   => Energetics <=

    Nuclear Repulsion Energy =             24.3232393838559098
    One-Electron Energy =                -151.0045781166028007
    Two-Electron Energy =                  54.9033118996638265
    DFT Exchange-Correlation Energy =      -5.5194558995187899
    Empirical Dispersion Energy =           0.0000000000000000
    VV10 Nonlocal Energy =                  0.0000000000000000
    Total Energy =                        -77.2974827326018499

  Dipole Moment: [D]
     X:     0.0044      Y:     0.0000      Z:     0.0000     Total:     0.0044

    Molecular point group: c2v

    Geometry (in Angstrom), charge = 0, multiplicity = 1:

       Center              X                  Y                   Z               Mass
    ------------   -----------------  -----------------  -----------------  -----------------
         C           -0.614610333491     0.000000000000     0.000000000000    12.000000000000
         C            0.614309666509     0.000000000000     0.000000000000    12.000000000000
         H           -1.687440004874     0.000000000000     0.000000000000     1.007825032230
         H            1.691019995126     0.000000000000     0.000000000000     1.007825032230

  Basis Set: CC-PVDZ
    Blend: CC-PVDZ
  Basis Set: (CC-PVDZ AUX)
    Blend: CC-PVDZ-JKFIT

  -Total Gradient:
     Atom            X                  Y                   Z
    ------   -----------------  -----------------  -----------------
       1       -0.046233119798     0.000000000000     0.000000000000
       2        0.043206327819     0.000000000000     0.000000000000
       3        0.000303041166     0.000000000000     0.000000000000
       4        0.002721481517     0.000000000000     0.000000000000

  Vibration                       4                   5                   6
  Freq [cm^-1]                 228.4627            228.4627            678.3911
  Irrep                          B1g                 B2g                 B2g
  Reduced mass [u]              1.9216              1.9216              1.8013
  Force const [mDyne/A]         0.0591              0.0591              0.4884

  Vibration                       7                   8                   9
  Freq [cm^-1]                 678.3911            788.7502            788.7502
  Irrep                          B1g                 B2u                 B1u
  Reduced mass [u]              1.8013              1.0848              1.0848
  Force const [mDyne/A]         0.4884              0.3976              0.3976

  Vibration                       10                  11                  12
  Freq [cm^-1]                1990.8717           3423.8316           3515.7957
  Irrep                           Ag                 B3u                  Ag
  Reduced mass [u]              3.9863              1.0848              1.2125
  Force const [mDyne/A]         9.3091              7.4926              8.8307

  ==> Thermochemistry Components <==

  Entropy, S
    Electronic S            0.000 [cal/(mol K)]        0.000 [J/(mol K)]       0.00000000 [mEh/K] (multiplicity = 1)
    Translational S        35.704 [cal/(mol K)]      149.387 [J/(mol K)]       0.05689862 [mEh/K] (mol. weight = 26.0157 [u], P = 101325.00 [Pa])
    Rotational S           10.952 [cal/(mol K)]       45.824 [J/(mol K)]       0.01745345 [mEh/K] (symmetry no. = 2)
    Vibrational S           4.882 [cal/(mol K)]       20.427 [J/(mol K)]       0.00778027 [mEh/K]
  Total S                  51.539 [cal/(mol K)]      215.638 [J/(mol K)]       0.08213233 [mEh/K]
  Correction S              0.000 [cal/(mol K)]        0.000 [J/(mol K)]       0.00000000 [mEh/K]

  Constant volume heat capacity, Cv
    Electronic Cv           0.000 [cal/(mol K)]        0.000 [J/(mol K)]       0.00000000 [mEh/K]
    Translational Cv        2.981 [cal/(mol K)]       12.472 [J/(mol K)]       0.00475022 [mEh/K]
    Rotational Cv           1.987 [cal/(mol K)]        8.314 [J/(mol K)]       0.00316681 [mEh/K]
    Vibrational Cv          6.689 [cal/(mol K)]       27.986 [J/(mol K)]       0.01065933 [mEh/K]
  Total Cv                 11.657 [cal/(mol K)]       48.772 [J/(mol K)]       0.01857635 [mEh/K]
  Correction Cv             0.000 [cal/(mol K)]        0.000 [J/(mol K)]       0.00000000 [mEh/K]

  Constant pressure heat capacity, Cp
    Electronic Cp           0.000 [cal/(mol K)]        0.000 [J/(mol K)]       0.00000000 [mEh/K]
    Translational Cp        4.968 [cal/(mol K)]       20.786 [J/(mol K)]       0.00791703 [mEh/K]
    Rotational Cp           1.987 [cal/(mol K)]        8.314 [J/(mol K)]       0.00316681 [mEh/K]
    Vibrational Cp          6.689 [cal/(mol K)]       27.986 [J/(mol K)]       0.01065933 [mEh/K]
  Total Cp                 13.644 [cal/(mol K)]       57.087 [J/(mol K)]       0.02174316 [mEh/K]
  Correction Cp             0.000 [cal/(mol K)]        0.000 [J/(mol K)]       0.00000000 [mEh/K]

  ==> Thermochemistry Energy Analysis <==

  Raw electronic energy, E0
  Total E0, Electronic energy at well bottom at 0 [K]                  -77.29748829 [Eh]

  Zero-point energy, ZPE_vib = Sum_i nu_i / 2
    Electronic ZPE          0.000 [kcal/mol]        0.000 [kJ/mol]       0.00000000 [Eh]
    Translational ZPE       0.000 [kcal/mol]        0.000 [kJ/mol]       0.00000000 [Eh]
    Rotational ZPE          0.000 [kcal/mol]        0.000 [kJ/mol]       0.00000000 [Eh]
    Vibrational ZPE        17.615 [kcal/mol]       73.700 [kJ/mol]       0.02807091 [Eh]        6160.853 [cm^-1]
  Correction ZPE           17.615 [kcal/mol]       73.700 [kJ/mol]       0.02807091 [Eh]        6160.853 [cm^-1]
  Total ZPE, Electronic energy at 0 [K]                                -77.26941737 [Eh]

  Thermal Energy, E (includes ZPE)
    Electronic E            0.000 [kcal/mol]        0.000 [kJ/mol]       0.00000000 [Eh]
    Translational E         0.889 [kcal/mol]        3.718 [kJ/mol]       0.00141628 [Eh]
    Rotational E            0.592 [kcal/mol]        2.479 [kJ/mol]       0.00094418 [Eh]
    Vibrational E          18.520 [kcal/mol]       77.487 [kJ/mol]       0.02951317 [Eh]
  Correction E             20.001 [kcal/mol]       83.684 [kJ/mol]       0.03187363 [Eh]
  Total E, Electronic energy at  298.15 [K]                            -77.26561465 [Eh]

  Enthalpy, H_trans = E_trans + k_B * T
    Electronic H            0.000 [kcal/mol]        0.000 [kJ/mol]       0.00000000 [Eh]
    Translational H         1.481 [kcal/mol]        6.197 [kJ/mol]       0.00236046 [Eh]
    Rotational H            0.592 [kcal/mol]        2.479 [kJ/mol]       0.00094418 [Eh]
    Vibrational H          18.520 [kcal/mol]       77.487 [kJ/mol]       0.02951317 [Eh]
  Correction H             20.593 [kcal/mol]       86.163 [kJ/mol]       0.03281782 [Eh]
  Total H, Enthalpy at  298.15 [K]                                     -77.26467047 [Eh]

  Gibbs free energy, G = H - T * S
    Electronic G            0.000 [kcal/mol]        0.000 [kJ/mol]       0.00000000 [Eh]
    Translational G        -9.164 [kcal/mol]      -38.342 [kJ/mol]      -0.01460386 [Eh]
    Rotational G           -2.673 [kcal/mol]      -11.183 [kJ/mol]      -0.00425956 [Eh]
    Vibrational G          17.064 [kcal/mol]       71.396 [kJ/mol]       0.02719348 [Eh]
  Correction G              5.227 [kcal/mol]       21.871 [kJ/mol]       0.00833006 [Eh]
  Total G, Free enthalpy at  298.15 [K]                                -77.28915823 [Eh]

*** Psi4 exiting successfully. Buy a developer a beer!
