                               Psi4 1.3.2 release

  ==> Input File <==

--------------------------------------------------------------------------
set basis  6-31+G*
molecule {
0 1
   C       -1.22151       -0.69325        0.00000
   C       -1.21114        0.71122        0.00000
   C       -0.01037       -1.40452        0.00000
   C        0.01037        1.40452        0.00000
   C        1.21114       -0.71122        0.00000
   C        1.22151        0.69325        0.00000
   H       -2.17311       -1.23332        0.00000
   H       -2.15464        1.26533        0.00000
   H       -0.01848       -2.49865        0.00000
   H        0.01848        2.49865        0.00000
   H        2.15464       -1.26533        0.00000
   H        2.17311        1.23332        0.00000
}
energy('m06-2x')
frequencies('m06-2x')
--------------------------------------------------------------------------

    Molecular point group: c2h
  Charge       = 0
  Multiplicity = 1
  Basis Set: 6-31+G*
    Blend: 6-31+G*
  Basis Set: (6-31+G* AUX)
    Blend: HEAVY-AUG-CC-PVDZ-JKFIT
  @DF-RKS Final Energy:  -232.14342145172981
    Total Energy =                       -232.1434214517297789
    Molecular point group: c2h
  Basis Set: 6-31+G*
    Blend: 6-31+G*
  Basis Set: (6-31+G* AUX)
    Blend: HEAVY-AUG-CC-PVDZ-JKFIT
  @DF-RKS Final Energy:  -232.14342145542943
    Total Energy =                       -232.1434214554294329
  Basis Set: 6-31+G*
    Blend: 6-31+G*
  Basis Set: (6-31+G* AUX)
    Blend: HEAVY-AUG-CC-PVDZ-JKFIT
  Basis Set: 6-31+G*
    Blend: 6-31+G*
  Basis Set: (6-31+G* AUX)
    Blend: HEAVY-AUG-CC-PVDZ-JKFIT
  @DF-RKS Final Energy:  -232.14342145487251
    Total Energy =                       -232.1434214548725095
  Basis Set: 6-31+G*
  @DF-RKS Final Energy:  -232.14354982336766
    Total Energy =                       -232.1435498233676640
  @DF-RKS Final Energy:  -232.14356902033722
    Total Energy =                       -232.1435690203372246
  @DF-RKS Final Energy:  -232.14352235378405
    Total Energy =                       -232.1435223537840784
  @DF-RKS Final Energy:  -232.14348719822874
    Total Energy =                       -232.1434871982287405
  @DF-RKS Final Energy:  -232.14353527032372
    Total Energy =                       -232.1435352703237243
  @DF-RKS Final Energy:  -232.14353751759862
    Total Energy =                       -232.1435375175986167
  @DF-RKS Final Energy:  -232.14351484792320
    Total Energy =                       -232.1435148479231998
  @DF-RKS Final Energy:  -232.14351564193467
    Total Energy =                       -232.1435156419346697
  @DF-RKS Final Energy:  -232.14348127904296
    Total Energy =                       -232.1434812790429589
  @DF-RKS Final Energy:  -232.14352463176581
    Total Energy =                       -232.1435246317657857
  @DF-RKS Final Energy:  -232.14344442016406
    Total Energy =                       -232.1434444201640588
  @DF-RKS Final Energy:  -232.14345907190165
    Total Energy =                       -232.1434590719016455
  @DF-RKS Final Energy:  -232.14351894056145
    Total Energy =                       -232.1435189405614494
  @DF-RKS Final Energy:  -232.14359426907427
    Total Energy =                       -232.1435942690742706
  @DF-RKS Final Energy:  -232.14349809215526
    Total Energy =                       -232.1434980921552551
  @DF-RKS Final Energy:  -232.14352545704614
    Total Energy =                       -232.1435254570461666
  @DF-RKS Final Energy:  -232.14350215436593
    Total Energy =                       -232.1435021543659332
  @DF-RKS Final Energy:  -232.14348739154190
    Total Energy =                       -232.1434873915418962
  @DF-RKS Final Energy:  -232.14342114733762
    Total Energy =                       -232.1434211473376479
  @DF-RKS Final Energy:  -232.14342103778202
    Total Energy =                       -232.1434210377820193
  @DF-RKS Final Energy:  -232.14342110427182
    Total Energy =                       -232.1434211042718232
  @DF-RKS Final Energy:  -232.14342099431667
    Total Energy =                       -232.1434209943166707
  @DF-RKS Final Energy:  -232.14342125067972
    Total Energy =                       -232.1434212506797223
  @DF-RKS Final Energy:  -232.14342125245659
    Total Energy =                       -232.1434212524565623
  @DF-RKS Final Energy:  -232.14342120979452
    Total Energy =                       -232.1434212097945533
  @DF-RKS Final Energy:  -232.14342107508861
    Total Energy =                       -232.1434210750886109
  @DF-RKS Final Energy:  -232.14342107400603
    Total Energy =                       -232.1434210740060564
  @DF-RKS Final Energy:  -232.14342020076512
    Total Energy =                       -232.1434202007650924
  @DF-RKS Final Energy:  -232.14342078939913
    Total Energy =                       -232.1434207893991584
  @DF-RKS Final Energy:  -232.14342000095027
    Total Energy =                       -232.1434200009503002
  @DF-RKS Final Energy:  -232.14342076962470
    Total Energy =                       -232.1434207696246688
  @DF-RKS Final Energy:  -232.14341878180304
    Total Energy =                       -232.1434187818030637
  @DF-RKS Final Energy:  -232.14341915379140
    Total Energy =                       -232.1434191537913989
  @DF-RKS Final Energy:  -232.14341804422969
    Total Energy =                       -232.1434180442297190
  @DF-RKS Final Energy:  -232.14341987166193
    Total Energy =                       -232.1434198716619335
  Basis Set: (6-31+G* AUX)
    Blend: HEAVY-AUG-CC-PVDZ-JKFIT
  Basis Set: 6-31+G*
    Blend: 6-31+G*
  Basis Set: (6-31+G* AUX)
    Blend: HEAVY-AUG-CC-PVDZ-JKFIT
  @DF-RKS Final Energy:  -232.14341898010559
    Total Energy =                       -232.1434189801055652
  Basis Set: 6-31+G*
    Blend: 6-31+G*
  Basis Set: (6-31+G* AUX)
    Blend: HEAVY-AUG-CC-PVDZ-JKFIT
    Molecular point group: cs
  Charge       = 0
  Multiplicity = 1
  Basis Set: 6-31+G*
    Blend: 6-31+G*
  Basis Set: (6-31+G* AUX)
    Blend: HEAVY-AUG-CC-PVDZ-JKFIT

    Orbital Energies [Eh]
    ---------------------

    Doubly Occupied:

       1Ap   -10.560970     2Ap   -10.560626     3Ap   -10.560600
       4Ap   -10.559882     5Ap   -10.559863     6Ap   -10.559506
       7Ap    -0.955455     8Ap    -0.841250     9Ap    -0.841244
      10Ap    -0.685135    11Ap    -0.685120    12Ap    -0.597628
      13Ap    -0.536060    14Ap    -0.509730    15Ap    -0.488316
      16Ap    -0.488302     1App   -0.434632    17Ap    -0.404186
      18Ap    -0.404180     2App   -0.306221     3App   -0.306214

  @DF-RKS Final Energy:  -232.14341893524471

   => Energetics <=

    Nuclear Repulsion Energy =            202.0133184684007119
    One-Electron Energy =                -710.8794628316136368
    Two-Electron Energy =                 293.4107033131490425
    DFT Exchange-Correlation Energy =     -16.6879778851808638
    Empirical Dispersion Energy =           0.0000000000000000
    VV10 Nonlocal Energy =                  0.0000000000000000
    Total Energy =                       -232.1434189352447390

  Dipole Moment: [D]
     X:    -0.0010      Y:    -0.0016      Z:     0.0000     Total:     0.0018

    Molecular point group: cs

    Geometry (in Angstrom), charge = 0, multiplicity = 1:

       Center              X                  Y                   Z               Mass
    ------------   -----------------  -----------------  -----------------  -----------------
         C           -1.221510000000    -0.693250000000     0.000000000000    12.000000000000
         C           -1.211140000000     0.711220000000     0.000000000000    12.000000000000
         C           -0.010370000000    -1.404520000000     0.000000000000    12.000000000000
         C            0.010370000000     1.404520000000     0.000000000000    12.000000000000
         C            1.211140000000    -0.711220000000     0.000000000000    12.000000000000
         C            1.221510000000     0.693250000000     0.000000000000    12.000000000000
         H           -2.173110000000    -1.233320000000     0.000000000000     1.007825032230
         H           -2.154640000000     1.264012202829     0.000000000000     1.007825032230
         H           -0.018480000000    -2.497332202829     0.000000000000     1.007825032230
         H            0.018480000000     2.499967797171     0.000000000000     1.007825032230
         H            2.154640000000    -1.266647797171     0.000000000000     1.007825032230
         H            2.173110000000     1.233320000000     0.000000000000     1.007825032230

  Basis Set: 6-31+G*
    Blend: 6-31+G*
  Basis Set: (6-31+G* AUX)
    Blend: HEAVY-AUG-CC-PVDZ-JKFIT

  -Total Gradient:
     Atom            X                  Y                   Z
    ------   -----------------  -----------------  -----------------
       1       -0.003723087059    -0.002044055255     0.000000000000
       2       -0.003899369294     0.002433519140     0.000000000000
       3        0.000022609206    -0.005068710466     0.000000000000
       4        0.000045403931     0.003391861814     0.000000000000
       5        0.003347367467    -0.001828089237     0.000000000000
       6        0.003567671502     0.002046761118     0.000000000000
       7       -0.004824081158    -0.002778850445     0.000000000000
       8       -0.004471746266     0.002541594244     0.000000000000
       9       -0.000030044276    -0.004683432280     0.000000000000
      10        0.000030933474     0.006432277834     0.000000000000
      11        0.005103508871    -0.003209502597     0.000000000000
      12        0.004832713958     0.002772297690     0.000000000000

  Vibration                       7                   8                   9
  Freq [cm^-1]                 430.8408            431.9906            591.0207
  Irrep                           Au                  Au                  Ag
  Reduced mass [u]              2.9526              2.9718              5.4992
  Force const [mDyne/A]         0.3229              0.3267              1.1318

  Vibration                       10                  11                  12
  Freq [cm^-1]                 603.5256            721.7252            737.4515
  Irrep                           Ag                  Bg                  Au
  Reduced mass [u]              5.8670              3.6850              1.0849
  Force const [mDyne/A]         1.2591              1.1309              0.3476

  Vibration                       13                  14                  15
  Freq [cm^-1]                 905.9348            908.1737           1003.6904
  Irrep                           Bg                  Bg                  Ag
  Reduced mass [u]              1.2479              1.2479              4.1317
  Force const [mDyne/A]         0.6034              0.6064              2.4523

  Vibration                       16                  17                  18
  Freq [cm^-1]                1009.3666           1023.1745           1025.0464
  Irrep                           Bu                  Au                  Au
  Reduced mass [u]              6.5263              1.3571              1.3530
  Force const [mDyne/A]         3.9176              0.8371              0.8376

  Vibration                       19                  20                  21
  Freq [cm^-1]                1052.4752           1064.6874           1064.9558
  Irrep                           Bg                  Bu                  Bu
  Reduced mass [u]              1.2434              1.7286              1.7321
  Force const [mDyne/A]         0.8115              1.1545              1.1574

  Vibration                       22                  23                  24
  Freq [cm^-1]                1102.8975           1167.2346           1244.7937
  Irrep                           Ag                  Bu                  Ag
  Reduced mass [u]              1.3141              1.2777              1.1472
  Force const [mDyne/A]         0.9418              1.0256              1.0473

  Vibration                       25                  26                  27
  Freq [cm^-1]                1306.4829           1322.9446           1520.1374
  Irrep                           Bu                  Ag                  Bu
  Reduced mass [u]              3.4142              1.2964              1.9765
  Force const [mDyne/A]         3.4336              1.3368              2.6910

  Vibration                       28                  29                  30
  Freq [cm^-1]                1520.1978           1640.5993           1666.0114
  Irrep                           Bu                  Ag                  Ag
  Reduced mass [u]              1.9715              5.1600              4.1807
  Force const [mDyne/A]         2.6844              8.1829              6.8368

  Vibration                       31                  32                  33
  Freq [cm^-1]                3141.1027           3143.3386           3152.1770
  Irrep                           Bu                  Ag                  Ag
  Reduced mass [u]              1.0842              1.0903              1.0872
  Force const [mDyne/A]         6.3026              6.3474              6.3648

  Vibration                       34                  35                  36
  Freq [cm^-1]                3164.7714           3164.9589           3175.8506
  Irrep                           Bu                  Bu                  Ag
  Reduced mass [u]              1.0954              1.0954              1.0977
  Force const [mDyne/A]         6.4644              6.4650              6.5232

  ==> Thermochemistry Components <==

  Entropy, S
    Electronic S            0.000 [cal/(mol K)]        0.000 [J/(mol K)]       0.00000000 [mEh/K] (multiplicity = 1)
    Translational S        38.979 [cal/(mol K)]      163.089 [J/(mol K)]       0.06211726 [mEh/K] (mol. weight = 78.0470 [u], P = 101325.00 [Pa])
    Rotational S           24.318 [cal/(mol K)]      101.746 [J/(mol K)]       0.03875307 [mEh/K] (symmetry no. = 2)
    Vibrational S           4.235 [cal/(mol K)]       17.718 [J/(mol K)]       0.00674853 [mEh/K]
  Total S                  67.532 [cal/(mol K)]      282.553 [J/(mol K)]       0.10761887 [mEh/K]
  Correction S              0.000 [cal/(mol K)]        0.000 [J/(mol K)]       0.00000000 [mEh/K]

  Constant volume heat capacity, Cv
    Electronic Cv           0.000 [cal/(mol K)]        0.000 [J/(mol K)]       0.00000000 [mEh/K]
    Translational Cv        2.981 [cal/(mol K)]       12.472 [J/(mol K)]       0.00475022 [mEh/K]
    Rotational Cv           2.981 [cal/(mol K)]       12.472 [J/(mol K)]       0.00475022 [mEh/K]
    Vibrational Cv         10.988 [cal/(mol K)]       45.974 [J/(mol K)]       0.01751068 [mEh/K]
  Total Cv                 16.950 [cal/(mol K)]       70.918 [J/(mol K)]       0.02701112 [mEh/K]
  Correction Cv             0.000 [cal/(mol K)]        0.000 [J/(mol K)]       0.00000000 [mEh/K]

  Constant pressure heat capacity, Cp
    Electronic Cp           0.000 [cal/(mol K)]        0.000 [J/(mol K)]       0.00000000 [mEh/K]
    Translational Cp        4.968 [cal/(mol K)]       20.786 [J/(mol K)]       0.00791703 [mEh/K]
    Rotational Cp           2.981 [cal/(mol K)]       12.472 [J/(mol K)]       0.00475022 [mEh/K]
    Vibrational Cp         10.988 [cal/(mol K)]       45.974 [J/(mol K)]       0.01751068 [mEh/K]
  Total Cp                 18.937 [cal/(mol K)]       79.232 [J/(mol K)]       0.03017793 [mEh/K]
  Correction Cp             0.000 [cal/(mol K)]        0.000 [J/(mol K)]       0.00000000 [mEh/K]

  ==> Thermochemistry Energy Analysis <==

  Raw electronic energy, E0
  Total E0, Electronic energy at well bottom at 0 [K]                 -232.14342145 [Eh]

  Zero-point energy, ZPE_vib = Sum_i nu_i / 2
    Electronic ZPE          0.000 [kcal/mol]        0.000 [kJ/mol]       0.00000000 [Eh]
    Translational ZPE       0.000 [kcal/mol]        0.000 [kJ/mol]       0.00000000 [Eh]
    Rotational ZPE          0.000 [kcal/mol]        0.000 [kJ/mol]       0.00000000 [Eh]
    Vibrational ZPE        62.912 [kcal/mol]      263.224 [kJ/mol]       0.10025659 [Eh]       22003.779 [cm^-1]
  Correction ZPE           62.912 [kcal/mol]      263.224 [kJ/mol]       0.10025659 [Eh]       22003.779 [cm^-1]
  Total ZPE, Electronic energy at 0 [K]                               -232.04316486 [Eh]

  Thermal Energy, E (includes ZPE)
    Electronic E            0.000 [kcal/mol]        0.000 [kJ/mol]       0.00000000 [Eh]
    Translational E         0.889 [kcal/mol]        3.718 [kJ/mol]       0.00141628 [Eh]
    Rotational E            0.889 [kcal/mol]        3.718 [kJ/mol]       0.00141628 [Eh]
    Vibrational E          63.860 [kcal/mol]      267.189 [kJ/mol]       0.10176685 [Eh]
  Correction E             65.637 [kcal/mol]      274.626 [kJ/mol]       0.10459940 [Eh]
  Total E, Electronic energy at  298.15 [K]                           -232.03882205 [Eh]

  Enthalpy, H_trans = E_trans + k_B * T
    Electronic H            0.000 [kcal/mol]        0.000 [kJ/mol]       0.00000000 [Eh]
    Translational H         1.481 [kcal/mol]        6.197 [kJ/mol]       0.00236046 [Eh]
    Rotational H            0.889 [kcal/mol]        3.718 [kJ/mol]       0.00141628 [Eh]
    Vibrational H          63.860 [kcal/mol]      267.189 [kJ/mol]       0.10176685 [Eh]
  Correction H             66.230 [kcal/mol]      277.105 [kJ/mol]       0.10554359 [Eh]
  Total H, Enthalpy at  298.15 [K]                                    -232.03787787 [Eh]

  Gibbs free energy, G = H - T * S
    Electronic G            0.000 [kcal/mol]        0.000 [kJ/mol]       0.00000000 [Eh]
    Translational G       -10.140 [kcal/mol]      -42.428 [kJ/mol]      -0.01615980 [Eh]
    Rotational G           -6.362 [kcal/mol]      -26.617 [kJ/mol]      -0.01013795 [Eh]
    Vibrational G          62.597 [kcal/mol]      261.906 [kJ/mol]       0.09975477 [Eh]
  Correction G             46.095 [kcal/mol]      192.861 [kJ/mol]       0.07345702 [Eh]
  Total G, Free enthalpy at  298.15 [K]                               -232.06996443 [Eh]

*** Psi4 exiting successfully. Buy a developer a beer!
