                               Psi4 1.3.2 release

  ==> Input File <==

--------------------------------------------------------------------------
set basis  cc-pVDZ
molecule {
0 1
   C       -0.61446        0.00000        0.00000
   C        0.61446        0.00000        0.00000
   H       -1.68923        0.00000        0.00000
   H        1.68923        0.00000        0.00000
}
energy('scf')
frequencies('scf')
--------------------------------------------------------------------------

    Molecular point group: d2h
  Charge       = 0
  Multiplicity = 1
  Basis Set: CC-PVDZ
    Blend: CC-PVDZ
  Basis Set: (CC-PVDZ AUX)
    Blend: CC-PVDZ-JKFIT
  @DF-RHF Final Energy:   -76.82277906321298
    Total Energy =                        -76.8227790632129768
    Molecular point group: d2h
  Basis Set: CC-PVDZ
    Blend: CC-PVDZ
  Basis Set: (CC-PVDZ AUX)
    Blend: CC-PVDZ-JKFIT
  @DF-RHF Final Energy:   -76.82277906322825
    Total Energy =                        -76.8227790632282534
  Basis Set: CC-PVDZ
    Blend: CC-PVDZ
  Basis Set: (CC-PVDZ AUX)
    Blend: CC-PVDZ-JKFIT

  -Total Gradient:
     Atom            X                  Y                   Z
    ------   -----------------  -----------------  -----------------
       1       -0.073346451360    -0.000000000000     0.000000000000
       2        0.073346451360     0.000000000000     0.000000000000
       3       -0.008605341534    -0.000000000000     0.000000000000
       4        0.008605341534     0.000000000000     0.000000000000

  Charge       = 0
  Multiplicity = 1
  Basis Set: CC-PVDZ
    Blend: CC-PVDZ
  Basis Set: (CC-PVDZ AUX)
    Blend: CC-PVDZ-JKFIT

    Orbital Energies [Eh]
    ---------------------

    Doubly Occupied:

       1Ag   -11.256244     1B3u  -11.253105     2Ag    -1.019095
       2B3u   -0.762403     3Ag    -0.670475     1B1u   -0.400207
       1B2u   -0.400207

  @DF-RHF Final Energy:   -76.82277906322825

   => Energetics <=

    Nuclear Repulsion Energy =             24.3232181713792350
    One-Electron Energy =                -150.7685203541396675
    Two-Electron Energy =                  49.6225231195321754
    Total Energy =                        -76.8227790632282534

  Dipole Moment: [D]
     X:     0.0000      Y:     0.0000      Z:     0.0000     Total:     0.0000

    Molecular point group: d2h
  Basis Set: CC-PVDZ
    Blend: CC-PVDZ
  Basis Set: (CC-PVDZ AUX)
    Blend: CC-PVDZ-JKFIT
  Basis Set: (CC-PVDZ AUX)
    Blend: CC-PVDZ-JKFIT
    Molecular point group: d2h

    Geometry (in Angstrom), charge = 0, multiplicity = 1:

       Center              X                  Y                   Z               Mass
    ------------   -----------------  -----------------  -----------------  -----------------
         C           -0.614460000000    -0.000000000000     0.000000000000    12.000000000000
         C            0.614460000000     0.000000000000     0.000000000000    12.000000000000
         H           -1.689230000000    -0.000000000000     0.000000000000     1.007825032230
         H            1.689230000000     0.000000000000     0.000000000000     1.007825032230

  Basis Set: CC-PVDZ
    Blend: CC-PVDZ
  Basis Set: (CC-PVDZ AUX)
    Blend: CC-PVDZ-JKFIT

  Vibration                       4                   5                   6
  Freq [cm^-1]                 332.3416            332.3416            804.2523
  Irrep                                                                  B2g
  Reduced mass [u]              2.0321              2.0321              1.7139
  Force const [mDyne/A]         0.1322              0.1322              0.6532

  IR activ [km/mol]             0.0000              0.0000              0.0000

  Vibration                       7                   8                   9
  Freq [cm^-1]                 804.2523            906.3754            906.3754
  Irrep                          B1g                 B1u                 B2u
  Reduced mass [u]              1.7139              1.0848              1.0848
  Force const [mDyne/A]         0.6532              0.5251              0.5251

  IR activ [km/mol]             0.0000             98.8830             98.8830

  Vibration                       10                  11                  12
  Freq [cm^-1]                2019.0542           3474.1528           3563.6529
  Irrep                           Ag                 B3u                  Ag
  Reduced mass [u]              4.0264              1.0848              1.2089
  Force const [mDyne/A]         9.6709              7.7144              9.0453

  IR activ [km/mol]             0.0000             118.6840             0.0000

  ==> Thermochemistry Components <==

  Entropy, S
    Electronic S            0.000 [cal/(mol K)]        0.000 [J/(mol K)]       0.00000000 [mEh/K] (multiplicity = 1)
    Translational S        35.704 [cal/(mol K)]      149.387 [J/(mol K)]       0.05689862 [mEh/K] (mol. weight = 26.0157 [u], P = 101325.00 [Pa])
    Rotational S           10.952 [cal/(mol K)]       45.824 [J/(mol K)]       0.01745345 [mEh/K] (symmetry no. = 2)
    Vibrational S           3.179 [cal/(mol K)]       13.299 [J/(mol K)]       0.00506546 [mEh/K]
  Total S                  49.835 [cal/(mol K)]      208.511 [J/(mol K)]       0.07941753 [mEh/K]
  Correction S              0.000 [cal/(mol K)]        0.000 [J/(mol K)]       0.00000000 [mEh/K]

  Constant volume heat capacity, Cv
    Electronic Cv           0.000 [cal/(mol K)]        0.000 [J/(mol K)]       0.00000000 [mEh/K]
    Translational Cv        2.981 [cal/(mol K)]       12.472 [J/(mol K)]       0.00475022 [mEh/K]
    Rotational Cv           1.987 [cal/(mol K)]        8.314 [J/(mol K)]       0.00316681 [mEh/K]
    Vibrational Cv          5.503 [cal/(mol K)]       23.026 [J/(mol K)]       0.00877004 [mEh/K]
  Total Cv                 10.471 [cal/(mol K)]       43.812 [J/(mol K)]       0.01668707 [mEh/K]
  Correction Cv             0.000 [cal/(mol K)]        0.000 [J/(mol K)]       0.00000000 [mEh/K]

  Constant pressure heat capacity, Cp
    Electronic Cp           0.000 [cal/(mol K)]        0.000 [J/(mol K)]       0.00000000 [mEh/K]
    Translational Cp        4.968 [cal/(mol K)]       20.786 [J/(mol K)]       0.00791703 [mEh/K]
    Rotational Cp           1.987 [cal/(mol K)]        8.314 [J/(mol K)]       0.00316681 [mEh/K]
    Vibrational Cp          5.503 [cal/(mol K)]       23.026 [J/(mol K)]       0.00877004 [mEh/K]
  Total Cp                 12.458 [cal/(mol K)]       52.126 [J/(mol K)]       0.01985388 [mEh/K]
  Correction Cp             0.000 [cal/(mol K)]        0.000 [J/(mol K)]       0.00000000 [mEh/K]

  ==> Thermochemistry Energy Analysis <==

  Raw electronic energy, E0
  Total E0, Electronic energy at well bottom at 0 [K]                  -76.82277906 [Eh]

  Zero-point energy, ZPE_vib = Sum_i nu_i / 2
    Electronic ZPE          0.000 [kcal/mol]        0.000 [kJ/mol]       0.00000000 [Eh]
    Translational ZPE       0.000 [kcal/mol]        0.000 [kJ/mol]       0.00000000 [Eh]
    Rotational ZPE          0.000 [kcal/mol]        0.000 [kJ/mol]       0.00000000 [Eh]
    Vibrational ZPE        18.789 [kcal/mol]       78.611 [kJ/mol]       0.02994150 [Eh]        6571.399 [cm^-1]
  Correction ZPE           18.789 [kcal/mol]       78.611 [kJ/mol]       0.02994150 [Eh]        6571.399 [cm^-1]
  Total ZPE, Electronic energy at 0 [K]                                -76.79283757 [Eh]

  Thermal Energy, E (includes ZPE)
    Electronic E            0.000 [kcal/mol]        0.000 [kJ/mol]       0.00000000 [Eh]
    Translational E         0.889 [kcal/mol]        3.718 [kJ/mol]       0.00141628 [Eh]
    Rotational E            0.592 [kcal/mol]        2.479 [kJ/mol]       0.00094418 [Eh]
    Vibrational E          19.430 [kcal/mol]       81.297 [kJ/mol]       0.03096434 [Eh]
  Correction E             20.912 [kcal/mol]       87.494 [kJ/mol]       0.03332480 [Eh]
  Total E, Electronic energy at  298.15 [K]                            -76.78945426 [Eh]

  Enthalpy, H_trans = E_trans + k_B * T
    Electronic H            0.000 [kcal/mol]        0.000 [kJ/mol]       0.00000000 [Eh]
    Translational H         1.481 [kcal/mol]        6.197 [kJ/mol]       0.00236046 [Eh]
    Rotational H            0.592 [kcal/mol]        2.479 [kJ/mol]       0.00094418 [Eh]
    Vibrational H          19.430 [kcal/mol]       81.297 [kJ/mol]       0.03096434 [Eh]
  Correction H             21.504 [kcal/mol]       89.973 [kJ/mol]       0.03426898 [Eh]
  Total H, Enthalpy at  298.15 [K]                                     -76.78851008 [Eh]

  Gibbs free energy, G = H - T * S
    Electronic G            0.000 [kcal/mol]        0.000 [kJ/mol]       0.00000000 [Eh]
    Translational G        -9.164 [kcal/mol]      -38.342 [kJ/mol]      -0.01460386 [Eh]
    Rotational G           -2.673 [kcal/mol]      -11.183 [kJ/mol]      -0.00425956 [Eh]
    Vibrational G          18.483 [kcal/mol]       77.332 [kJ/mol]       0.02945407 [Eh]
  Correction G              6.646 [kcal/mol]       27.806 [kJ/mol]       0.01059065 [Eh]
  Total G, Free enthalpy at  298.15 [K]                                -76.81218842 [Eh]

*** Psi4 exiting successfully. Buy a developer a beer!
