                               Psi4 1.3.2 release

  ==> Input File <==

--------------------------------------------------------------------------
set basis  cc-pVTZ
molecule {
0 1
   C       -0.61446        0.00000        0.00000
   C        0.61446        0.00000        0.00000
   H       -1.68923        0.00000        0.00000
   H        1.68923        0.00000        0.00000
}
energy('m06-2x')
frequencies('m06-2x')
--------------------------------------------------------------------------

    Molecular point group: d2h
  Charge       = 0
  Multiplicity = 1
  Basis Set: CC-PVTZ
    Blend: CC-PVTZ
  Basis Set: (CC-PVTZ AUX)
    Blend: CC-PVTZ-JKFIT
  @DF-RKS Final Energy:   -77.32191421715723
    Total Energy =                        -77.3219142171572429
    Molecular point group: d2h
  Basis Set: CC-PVTZ
    Blend: CC-PVTZ
  Basis Set: (CC-PVTZ AUX)
    Blend: CC-PVTZ-JKFIT
  @DF-RKS Final Energy:   -77.32191421731254
    Total Energy =                        -77.3219142173125391
  Basis Set: CC-PVTZ
    Blend: CC-PVTZ
  Basis Set: (CC-PVTZ AUX)
    Blend: CC-PVTZ-JKFIT
  Basis Set: CC-PVTZ
    Blend: CC-PVTZ
  Basis Set: (CC-PVTZ AUX)
    Blend: CC-PVTZ-JKFIT
  @DF-RKS Final Energy:   -77.32191421731254
    Total Energy =                        -77.3219142173125391
  Basis Set: CC-PVTZ
  @DF-RKS Final Energy:   -77.32178778068564
    Total Energy =                        -77.3217877806856393
  @DF-RKS Final Energy:   -77.32203582118949
    Total Energy =                        -77.3220358211894876
  @DF-RKS Final Energy:   -77.32184922780201
    Total Energy =                        -77.3218492278020051
  @DF-RKS Final Energy:   -77.32196958237418
    Total Energy =                        -77.3219695823741802
  @DF-RKS Final Energy:   -77.32191407832680
    Total Energy =                        -77.3219140783268131
  @DF-RKS Final Energy:   -77.32191405085351
    Total Energy =                        -77.3219140508535077
  @DF-RKS Final Energy:   -77.32191407833113
    Total Energy =                        -77.3219140783311474
  @DF-RKS Final Energy:   -77.32191405080719
    Total Energy =                        -77.3219140508071945
  @DF-RKS Final Energy:   -77.32191388401245
    Total Energy =                        -77.3219138840124316
  Basis Set: (CC-PVTZ AUX)
    Blend: CC-PVTZ-JKFIT
  Basis Set: CC-PVTZ
    Blend: CC-PVTZ
  Basis Set: (CC-PVTZ AUX)
    Blend: CC-PVTZ-JKFIT
  @DF-RKS Final Energy:   -77.32191388402222
    Total Energy =                        -77.3219138840222371
  Basis Set: CC-PVTZ
    Blend: CC-PVTZ
  Basis Set: (CC-PVTZ AUX)
    Blend: CC-PVTZ-JKFIT
    Molecular point group: c2v
  Charge       = 0
  Multiplicity = 1
  Basis Set: CC-PVTZ
    Blend: CC-PVTZ
  Basis Set: (CC-PVTZ AUX)
    Blend: CC-PVTZ-JKFIT

    Orbital Energies [Eh]
    ---------------------

    Doubly Occupied:

       1A1   -10.556915     2A1   -10.554576     3A1    -0.844666
       4A1    -0.646534     5A1    -0.561873     1B1    -0.351909
       1B2    -0.351909

  @DF-RKS Final Energy:   -77.32190901128618

   => Energetics <=

    Nuclear Repulsion Energy =             24.3232393838559098
    One-Electron Energy =                -151.0137971718978633
    Two-Electron Energy =                  54.8864817290514608
    DFT Exchange-Correlation Energy =      -5.5178329522956755
    Empirical Dispersion Energy =           0.0000000000000000
    VV10 Nonlocal Energy =                  0.0000000000000000
    Total Energy =                        -77.3219090112861664

  Dipole Moment: [D]
     X:     0.0042      Y:     0.0000      Z:     0.0000     Total:     0.0042

    Molecular point group: c2v

    Geometry (in Angstrom), charge = 0, multiplicity = 1:

       Center              X                  Y                   Z               Mass
    ------------   -----------------  -----------------  -----------------  -----------------
         C           -0.614610333491     0.000000000000     0.000000000000    12.000000000000
         C            0.614309666509     0.000000000000     0.000000000000    12.000000000000
         H           -1.687440004874     0.000000000000     0.000000000000     1.007825032230
         H            1.691019995126     0.000000000000     0.000000000000     1.007825032230

  Basis Set: CC-PVTZ
    Blend: CC-PVTZ
  Basis Set: (CC-PVTZ AUX)
    Blend: CC-PVTZ-JKFIT

  -Total Gradient:
     Atom            X                  Y                   Z
    ------   -----------------  -----------------  -----------------
       1       -0.062048725777     0.000000000000     0.000000000000
       2        0.059209850866     0.000000000000     0.000000000000
       3       -0.007098543507     0.000000000000     0.000000000000
       4        0.009936865748     0.000000000000     0.000000000000

  Vibration                       4                   5                   6
  Freq [cm^-1]                 310.4665            310.4665            740.8196
  Irrep                          B1g                 B2g                 B2g
  Reduced mass [u]              2.0792              2.0792              1.6818
  Force const [mDyne/A]         0.1181              0.1181              0.5438

  Vibration                       7                   8                   9
  Freq [cm^-1]                 740.8196            837.2531            837.2531
  Irrep                          B1g                 B2u                 B1u
  Reduced mass [u]              1.6818              1.0848              1.0848
  Force const [mDyne/A]         0.5438              0.4480              0.4480

  Vibration                       10                  11                  12
  Freq [cm^-1]                1914.6394           3316.6946           3407.9175
  Irrep                           Ag                 B3u                  Ag
  Reduced mass [u]              4.0218              1.0848              1.2093
  Force const [mDyne/A]         8.6866              7.0310              8.2749

  ==> Thermochemistry Components <==

  Entropy, S
    Electronic S            0.000 [cal/(mol K)]        0.000 [J/(mol K)]       0.00000000 [mEh/K] (multiplicity = 1)
    Translational S        35.704 [cal/(mol K)]      149.387 [J/(mol K)]       0.05689862 [mEh/K] (mol. weight = 26.0157 [u], P = 101325.00 [Pa])
    Rotational S           10.952 [cal/(mol K)]       45.824 [J/(mol K)]       0.01745345 [mEh/K] (symmetry no. = 2)
    Vibrational S           3.602 [cal/(mol K)]       15.072 [J/(mol K)]       0.00574053 [mEh/K]
  Total S                  50.259 [cal/(mol K)]      210.283 [J/(mol K)]       0.08009260 [mEh/K]
  Correction S              0.000 [cal/(mol K)]        0.000 [J/(mol K)]       0.00000000 [mEh/K]

  Constant volume heat capacity, Cv
    Electronic Cv           0.000 [cal/(mol K)]        0.000 [J/(mol K)]       0.00000000 [mEh/K]
    Translational Cv        2.981 [cal/(mol K)]       12.472 [J/(mol K)]       0.00475022 [mEh/K]
    Rotational Cv           1.987 [cal/(mol K)]        8.314 [J/(mol K)]       0.00316681 [mEh/K]
    Vibrational Cv          6.013 [cal/(mol K)]       25.158 [J/(mol K)]       0.00958231 [mEh/K]
  Total Cv                 10.981 [cal/(mol K)]       45.944 [J/(mol K)]       0.01749933 [mEh/K]
  Correction Cv             0.000 [cal/(mol K)]        0.000 [J/(mol K)]       0.00000000 [mEh/K]

  Constant pressure heat capacity, Cp
    Electronic Cp           0.000 [cal/(mol K)]        0.000 [J/(mol K)]       0.00000000 [mEh/K]
    Translational Cp        4.968 [cal/(mol K)]       20.786 [J/(mol K)]       0.00791703 [mEh/K]
    Rotational Cp           1.987 [cal/(mol K)]        8.314 [J/(mol K)]       0.00316681 [mEh/K]
    Vibrational Cp          6.013 [cal/(mol K)]       25.158 [J/(mol K)]       0.00958231 [mEh/K]
  Total Cp                 12.968 [cal/(mol K)]       54.259 [J/(mol K)]       0.02066614 [mEh/K]
  Correction Cp             0.000 [cal/(mol K)]        0.000 [J/(mol K)]       0.00000000 [mEh/K]

  ==> Thermochemistry Energy Analysis <==

  Raw electronic energy, E0
  Total E0, Electronic energy at well bottom at 0 [K]                  -77.32191422 [Eh]

  Zero-point energy, ZPE_vib = Sum_i nu_i / 2
    Electronic ZPE          0.000 [kcal/mol]        0.000 [kJ/mol]       0.00000000 [Eh]
    Translational ZPE       0.000 [kcal/mol]        0.000 [kJ/mol]       0.00000000 [Eh]
    Rotational ZPE          0.000 [kcal/mol]        0.000 [kJ/mol]       0.00000000 [Eh]
    Vibrational ZPE        17.750 [kcal/mol]       74.266 [kJ/mol]       0.02828648 [Eh]        6208.165 [cm^-1]
  Correction ZPE           17.750 [kcal/mol]       74.266 [kJ/mol]       0.02828648 [Eh]        6208.165 [cm^-1]
  Total ZPE, Electronic energy at 0 [K]                                -77.29362774 [Eh]

  Thermal Energy, E (includes ZPE)
    Electronic E            0.000 [kcal/mol]        0.000 [kJ/mol]       0.00000000 [Eh]
    Translational E         0.889 [kcal/mol]        3.718 [kJ/mol]       0.00141628 [Eh]
    Rotational E            0.592 [kcal/mol]        2.479 [kJ/mol]       0.00094418 [Eh]
    Vibrational E          18.469 [kcal/mol]       77.276 [kJ/mol]       0.02943300 [Eh]
  Correction E             19.951 [kcal/mol]       83.474 [kJ/mol]       0.03179346 [Eh]
  Total E, Electronic energy at  298.15 [K]                            -77.29012076 [Eh]

  Enthalpy, H_trans = E_trans + k_B * T
    Electronic H            0.000 [kcal/mol]        0.000 [kJ/mol]       0.00000000 [Eh]
    Translational H         1.481 [kcal/mol]        6.197 [kJ/mol]       0.00236046 [Eh]
    Rotational H            0.592 [kcal/mol]        2.479 [kJ/mol]       0.00094418 [Eh]
    Vibrational H          18.469 [kcal/mol]       77.276 [kJ/mol]       0.02943300 [Eh]
  Correction H             20.543 [kcal/mol]       85.953 [kJ/mol]       0.03273765 [Eh]
  Total H, Enthalpy at  298.15 [K]                                     -77.28917657 [Eh]

  Gibbs free energy, G = H - T * S
    Electronic G            0.000 [kcal/mol]        0.000 [kJ/mol]       0.00000000 [Eh]
    Translational G        -9.164 [kcal/mol]      -38.342 [kJ/mol]      -0.01460386 [Eh]
    Rotational G           -2.673 [kcal/mol]      -11.183 [kJ/mol]      -0.00425956 [Eh]
    Vibrational G          17.395 [kcal/mol]       72.783 [kJ/mol]       0.02772146 [Eh]
  Correction G              5.559 [kcal/mol]       23.257 [kJ/mol]       0.00885804 [Eh]
  Total G, Free enthalpy at  298.15 [K]                                -77.31305618 [Eh]

*** Psi4 exiting successfully. Buy a developer a beer!
