                               Psi4 1.3.2 release

  ==> Input File <==

--------------------------------------------------------------------------
set basis  6-31G
molecule {
0 1
   C       -1.22151       -0.69325        0.00000
   C       -1.21114        0.71122        0.00000
   C       -0.01037       -1.40452        0.00000
   C        0.01037        1.40452        0.00000
   C        1.21114       -0.71122        0.00000
   C        1.22151        0.69325        0.00000
   H       -2.17311       -1.23332        0.00000
   H       -2.15464        1.26533        0.00000
   H       -0.01848       -2.49865        0.00000
   H        0.01848        2.49865        0.00000
   H        2.15464       -1.26533        0.00000
   H        2.17311        1.23332        0.00000
}
energy('MP2')
frequencies('MP2')
--------------------------------------------------------------------------

    Molecular point group: c2h
  Charge       = 0
  Multiplicity = 1
  Basis Set: 6-31G
    Blend: 6-31G
  Basis Set: (6-31G AUX)
    Blend: CC-PVDZ-JKFIT
  @DF-RHF Final Energy:  -230.62067516051729
    Total Energy =                       -230.6206751605172940
  Basis Set: (6-31G AUX)
    Blend: CC-PVDZ-RI
	 Reference Energy          =    -230.6206751605172940 [Eh]
	 Singles Energy            =      -0.0000000000000000 [Eh]
	 Same-Spin Energy          =      -0.1327744129030964 [Eh]
	 Opposite-Spin Energy      =      -0.3946666157986470 [Eh]
	 Correlation Energy        =      -0.5274410287017434 [Eh]
	 Total Energy              =    -231.1481161892190244 [Eh]
	 SCS Total Energy          =    -231.1385332371100390 [Eh]
    Molecular point group: c2h
  Basis Set: 6-31G
    Blend: 6-31G
  Basis Set: (6-31G AUX)
    Blend: CC-PVDZ-JKFIT
  @DF-RHF Final Energy:  -230.62067516075626
    Total Energy =                       -230.6206751607562637
  Basis Set: (6-31G AUX)
  @DF-RHF Final Energy:  -230.62067516059042
    Total Energy =                       -230.6206751605904515
  @DF-RHF Final Energy:  -230.62066996333192
    Total Energy =                       -230.6206699633319204
  @DF-RHF Final Energy:  -230.62067858489075
    Total Energy =                       -230.6206785848907543
  @DF-RHF Final Energy:  -230.62067206034635
    Total Energy =                       -230.6206720603463509
  @DF-RHF Final Energy:  -230.62067609586245
    Total Energy =                       -230.6206760958624500
  @DF-RHF Final Energy:  -230.62066986373699
    Total Energy =                       -230.6206698637370209
  @DF-RHF Final Energy:  -230.62067852486473
    Total Energy =                       -230.6206785248647293
  @DF-RHF Final Energy:  -230.62067611598317
    Total Energy =                       -230.6206761159831444
  @DF-RHF Final Energy:  -230.62067220043781
    Total Energy =                       -230.6206722004378094
  @DF-RHF Final Energy:  -230.62067400571769
    Total Energy =                       -230.6206740057177171
  @DF-RHF Final Energy:  -230.62067402305476
    Total Energy =                       -230.6206740230547894
  @DF-RHF Final Energy:  -230.62066947378014
    Total Energy =                       -230.6206694737801399
  @DF-RHF Final Energy:  -230.62067919636075
    Total Energy =                       -230.6206791963607543
  @DF-RHF Final Energy:  -230.62057418010590
    Total Energy =                       -230.6205741801059048
  @DF-RHF Final Energy:  -230.62076857358019
    Total Energy =                       -230.6207685735801647
  @DF-RHF Final Energy:  -230.62062853496801
    Total Energy =                       -230.6206285349679774
  @DF-RHF Final Energy:  -230.62071870276304
    Total Energy =                       -230.6207187027630425
  @DF-RHF Final Energy:  -230.62057231590177
    Total Energy =                       -230.6205723159017680
  @DF-RHF Final Energy:  -230.62077784917344
    Total Energy =                       -230.6207778491734075
  @DF-RHF Final Energy:  -230.62067470322256
    Total Energy =                       -230.6206747032225621
  @DF-RHF Final Energy:  -230.62067464887934
    Total Energy =                       -230.6206746488793442
  @DF-RHF Final Energy:  -230.62067463731637
    Total Energy =                       -230.6206746373163696
  @DF-RHF Final Energy:  -230.62067454477568
    Total Energy =                       -230.6206745447756816
  @DF-RHF Final Energy:  -230.62067488363255
    Total Energy =                       -230.6206748836325460
  @DF-RHF Final Energy:  -230.62067487793087
    Total Energy =                       -230.6206748779308668
  @DF-RHF Final Energy:  -230.62067480166309
    Total Energy =                       -230.6206748016630854
  @DF-RHF Final Energy:  -230.62067463689854
    Total Energy =                       -230.6206746368985705
  @DF-RHF Final Energy:  -230.62067463683428
    Total Energy =                       -230.6206746368342806
  @DF-RHF Final Energy:  -230.62067404637523
    Total Energy =                       -230.6206740463752567
  @DF-RHF Final Energy:  -230.62067420027535
    Total Energy =                       -230.6206742002753458
  @DF-RHF Final Energy:  -230.62067389531467
    Total Energy =                       -230.6206738953146669
  @DF-RHF Final Energy:  -230.62067412047281
    Total Energy =                       -230.6206741204728132
  @DF-RHF Final Energy:  -230.62067270857418
    Total Energy =                       -230.6206727085741477
  @DF-RHF Final Energy:  -230.62067232806041
    Total Energy =                       -230.6206723280603796
  @DF-RHF Final Energy:  -230.62067205803822
    Total Energy =                       -230.6206720580382239
  @DF-RHF Final Energy:  -230.62067295561718
    Total Energy =                       -230.6206729556171808
  @DF-RHF Final Energy:  -230.62067295605186
    Total Energy =                       -230.6206729560518625
    Molecular point group: cs
  Charge       = 0
  Multiplicity = 1
  Basis Set: 6-31G
    Blend: 6-31G
  Basis Set: (6-31G AUX)
    Blend: CC-PVDZ-JKFIT

    Orbital Energies [Eh]
    ---------------------

    Doubly Occupied:

       1Ap   -11.243089     2Ap   -11.242568     3Ap   -11.242549
       4Ap   -11.241429     5Ap   -11.241412     6Ap   -11.240862
       7Ap    -1.145535     8Ap    -1.010155     9Ap    -1.010148
      10Ap    -0.818011    11Ap    -0.817998    12Ap    -0.703405
      13Ap    -0.636262    14Ap    -0.612738    15Ap    -0.582481
      16Ap    -0.582479     1App   -0.495254    17Ap    -0.485767
      18Ap    -0.485737     2App   -0.331739     3App   -0.331728

  @DF-RHF Final Energy:  -230.62067205727010

   => Energetics <=

    Nuclear Repulsion Energy =            202.0133184684007119
    One-Electron Energy =                -710.2652880045221764
    Two-Electron Energy =                 277.6312974788513657
    Total Energy =                       -230.6206720572700988

  Dipole Moment: [D]
     X:    -0.0012      Y:    -0.0020      Z:     0.0000     Total:     0.0023

  Basis Set: (6-31G AUX)
    Blend: CC-PVDZ-RI
    Molecular point group: cs

    Geometry (in Angstrom), charge = 0, multiplicity = 1:

       Center              X                  Y                   Z               Mass
    ------------   -----------------  -----------------  -----------------  -----------------
         C           -1.221510000000    -0.693250000000     0.000000000000    12.000000000000
         C           -1.211140000000     0.711220000000     0.000000000000    12.000000000000
         C           -0.010370000000    -1.404520000000     0.000000000000    12.000000000000
         C            0.010370000000     1.404520000000     0.000000000000    12.000000000000
         C            1.211140000000    -0.711220000000     0.000000000000    12.000000000000
         C            1.221510000000     0.693250000000     0.000000000000    12.000000000000
         H           -2.173110000000    -1.233320000000     0.000000000000     1.007825032230
         H           -2.154640000000     1.264012202829     0.000000000000     1.007825032230
         H           -0.018480000000    -2.497332202829     0.000000000000     1.007825032230
         H            0.018480000000     2.499967797171     0.000000000000     1.007825032230
         H            2.154640000000    -1.266647797171     0.000000000000     1.007825032230
         H            2.173110000000     1.233320000000     0.000000000000     1.007825032230

  Basis Set: 6-31G
    Blend: 6-31G
  Basis Set: (6-31G AUX)
    Blend: CC-PVDZ-JKFIT
  Basis Set: (6-31G AUX)
    Blend: CC-PVDZ-JKFIT
	 Reference Energy          =    -230.6206720572700988 [Eh]
	 Singles Energy            =      -0.0000000000000000 [Eh]
	 Same-Spin Energy          =      -0.1327744274017406 [Eh]
	 Opposite-Spin Energy      =      -0.3946666763312223 [Eh]
	 Correlation Energy        =      -0.5274411037329629 [Eh]
	 Total Energy              =    -231.1481131610030673 [Eh]

	 ================> DF-SCS-MP2 Energies <==================
	-----------------------------------------------------------
	 SCS Same-Spin Scale       =       0.3333333333333333 [-]
	 SCS Opposite-Spin Scale   =       1.2000000000000000 [-]
	 SCS Same-Spin Energy      =      -0.0442581424672469 [Eh]
	 SCS Opposite-Spin Energy  =      -0.4736000115974668 [Eh]
	 SCS Correlation Energy    =      -0.5178581540647137 [Eh]
	 SCS Total Energy          =    -231.1385302113348246 [Eh]
	-----------------------------------------------------------

  -Total Gradient:
     Atom            X                  Y                   Z
    ------   -----------------  -----------------  -----------------
       1        0.008357700161     0.004830962699     0.000000000000
       2        0.008092764830    -0.004651709036     0.000000000000
       3        0.000122550995     0.008831796069     0.000000000000
       4       -0.000037749729    -0.010517193796     0.000000000000
       5       -0.008644259997     0.005261374269     0.000000000000
       6       -0.008525474675    -0.004817605978     0.000000000000
       7       -0.001812601784    -0.001034408921     0.000000000000
       8       -0.001491724488     0.000724792622     0.000000000000
       9       -0.000017812826    -0.001205547305     0.000000000000
      10        0.000019141326     0.002954376812     0.000000000000
      11        0.002113194308    -0.001407284580     0.000000000000
      12        0.001824271878     0.001030447147     0.000000000000

  Vibration                       7                   8                   9
  Freq [cm^-1]                 382.8584            382.9043            471.5878
  Irrep                           Au                  Au                  Bg
  Reduced mass [u]              3.4321              3.4315             11.9467
  Force const [mDyne/A]         0.2964              0.2964              1.5654

  Vibration                       10                  11                  12
  Freq [cm^-1]                 636.0202            636.0390            694.8162
  Irrep                           Ag                  Ag                  Au
  Reduced mass [u]              6.1791              6.1792              1.0848
  Force const [mDyne/A]         1.4727              1.4728              0.3086

  Vibration                       13                  14                  15
  Freq [cm^-1]                 846.8334            846.9009            881.2947
  Irrep                           Bg                  Bg                  Au
  Reduced mass [u]              1.2479              1.2479              1.2753
  Force const [mDyne/A]         0.5272              0.5273              0.5836

  Vibration                       16                  17                  18
  Freq [cm^-1]                 881.3791            886.0070           1022.8415
  Irrep                           Au                  Bg                  Ag
  Reduced mass [u]              1.2752              1.0082              5.9270
  Force const [mDyne/A]         0.5836              0.4663              3.6534

  Vibration                       19                  20                  21
  Freq [cm^-1]                1047.6094           1086.1630           1086.1962
  Irrep                           Bu                  Bu                  Bu
  Reduced mass [u]              6.4527              1.8280              1.8277
  Force const [mDyne/A]         4.1724              1.2706              1.2705

  Vibration                       22                  23                  24
  Freq [cm^-1]                1239.7180           1253.5517           1253.6055
  Irrep                           Bu                  Ag                  Ag
  Reduced mass [u]              1.0493              1.1387              1.1386
  Force const [mDyne/A]         0.9502              1.0542              1.0542

  Vibration                       25                  26                  27
  Freq [cm^-1]                1420.5044           1427.7809           1543.6312
  Irrep                           Bu                  Ag                  Bu
  Reduced mass [u]              8.1570              1.2479              1.8567
  Force const [mDyne/A]         9.6977              1.4988              2.6067

  Vibration                       28                  29                  30
  Freq [cm^-1]                1543.6967           1657.7663           1657.8730
  Irrep                           Bu                  Ag                  Ag
  Reduced mass [u]              1.8567              5.1778              5.1790
  Force const [mDyne/A]         2.6069              8.3838              8.3869

  Vibration                       31                  32                  33
  Freq [cm^-1]                3139.0086           3149.6784           3149.7996
  Irrep                           Bu                  Ag                  Ag
  Reduced mass [u]              1.0863              1.0894              1.0894
  Force const [mDyne/A]         6.3062              6.3675              6.3680

  Vibration                       34                  35                  36
  Freq [cm^-1]                3169.7099           3169.8253           3184.7007
  Irrep                           Bu                  Bu                  Ag
  Reduced mass [u]              1.0969              1.0968              1.1027
  Force const [mDyne/A]         6.4929              6.4933              6.5895

  ==> Thermochemistry Components <==

  Entropy, S
    Electronic S            0.000 [cal/(mol K)]        0.000 [J/(mol K)]       0.00000000 [mEh/K] (multiplicity = 1)
    Translational S        38.979 [cal/(mol K)]      163.089 [J/(mol K)]       0.06211726 [mEh/K] (mol. weight = 78.0470 [u], P = 101325.00 [Pa])
    Rotational S           24.318 [cal/(mol K)]      101.746 [J/(mol K)]       0.03875307 [mEh/K] (symmetry no. = 2)
    Vibrational S           5.137 [cal/(mol K)]       21.494 [J/(mol K)]       0.00818659 [mEh/K]
  Total S                  68.434 [cal/(mol K)]      286.329 [J/(mol K)]       0.10905692 [mEh/K]
  Correction S              0.000 [cal/(mol K)]        0.000 [J/(mol K)]       0.00000000 [mEh/K]

  Constant volume heat capacity, Cv
    Electronic Cv           0.000 [cal/(mol K)]        0.000 [J/(mol K)]       0.00000000 [mEh/K]
    Translational Cv        2.981 [cal/(mol K)]       12.472 [J/(mol K)]       0.00475022 [mEh/K]
    Rotational Cv           2.981 [cal/(mol K)]       12.472 [J/(mol K)]       0.00475022 [mEh/K]
    Vibrational Cv         12.002 [cal/(mol K)]       50.218 [J/(mol K)]       0.01912720 [mEh/K]
  Total Cv                 17.964 [cal/(mol K)]       75.162 [J/(mol K)]       0.02862763 [mEh/K]
  Correction Cv             0.000 [cal/(mol K)]        0.000 [J/(mol K)]       0.00000000 [mEh/K]

  Constant pressure heat capacity, Cp
    Electronic Cp           0.000 [cal/(mol K)]        0.000 [J/(mol K)]       0.00000000 [mEh/K]
    Translational Cp        4.968 [cal/(mol K)]       20.786 [J/(mol K)]       0.00791703 [mEh/K]
    Rotational Cp           2.981 [cal/(mol K)]       12.472 [J/(mol K)]       0.00475022 [mEh/K]
    Vibrational Cp         12.002 [cal/(mol K)]       50.218 [J/(mol K)]       0.01912720 [mEh/K]
  Total Cp                 19.951 [cal/(mol K)]       83.476 [J/(mol K)]       0.03179444 [mEh/K]
  Correction Cp             0.000 [cal/(mol K)]        0.000 [J/(mol K)]       0.00000000 [mEh/K]

  ==> Thermochemistry Energy Analysis <==

  Raw electronic energy, E0
  Total E0, Electronic energy at well bottom at 0 [K]                 -231.14811619 [Eh]

  Zero-point energy, ZPE_vib = Sum_i nu_i / 2
    Electronic ZPE          0.000 [kcal/mol]        0.000 [kJ/mol]       0.00000000 [Eh]
    Translational ZPE       0.000 [kcal/mol]        0.000 [kJ/mol]       0.00000000 [Eh]
    Rotational ZPE          0.000 [kcal/mol]        0.000 [kJ/mol]       0.00000000 [Eh]
    Vibrational ZPE        62.544 [kcal/mol]      261.685 [kJ/mol]       0.09967052 [Eh]       21875.151 [cm^-1]
  Correction ZPE           62.544 [kcal/mol]      261.685 [kJ/mol]       0.09967052 [Eh]       21875.151 [cm^-1]
  Total ZPE, Electronic energy at 0 [K]                               -231.04844567 [Eh]

  Thermal Energy, E (includes ZPE)
    Electronic E            0.000 [kcal/mol]        0.000 [kJ/mol]       0.00000000 [Eh]
    Translational E         0.889 [kcal/mol]        3.718 [kJ/mol]       0.00141628 [Eh]
    Rotational E            0.889 [kcal/mol]        3.718 [kJ/mol]       0.00141628 [Eh]
    Vibrational E          63.665 [kcal/mol]      266.373 [kJ/mol]       0.10145605 [Eh]
  Correction E             65.442 [kcal/mol]      273.810 [kJ/mol]       0.10428860 [Eh]
  Total E, Electronic energy at  298.15 [K]                           -231.04382759 [Eh]

  Enthalpy, H_trans = E_trans + k_B * T
    Electronic H            0.000 [kcal/mol]        0.000 [kJ/mol]       0.00000000 [Eh]
    Translational H         1.481 [kcal/mol]        6.197 [kJ/mol]       0.00236046 [Eh]
    Rotational H            0.889 [kcal/mol]        3.718 [kJ/mol]       0.00141628 [Eh]
    Vibrational H          63.665 [kcal/mol]      266.373 [kJ/mol]       0.10145605 [Eh]
  Correction H             66.035 [kcal/mol]      276.289 [kJ/mol]       0.10523279 [Eh]
  Total H, Enthalpy at  298.15 [K]                                    -231.04288340 [Eh]

  Gibbs free energy, G = H - T * S
    Electronic G            0.000 [kcal/mol]        0.000 [kJ/mol]       0.00000000 [Eh]
    Translational G       -10.140 [kcal/mol]      -42.428 [kJ/mol]      -0.01615980 [Eh]
    Rotational G           -6.362 [kcal/mol]      -26.617 [kJ/mol]      -0.01013795 [Eh]
    Vibrational G          62.133 [kcal/mol]      259.964 [kJ/mol]       0.09901522 [Eh]
  Correction G             45.631 [kcal/mol]      190.920 [kJ/mol]       0.07271746 [Eh]
  Total G, Free enthalpy at  298.15 [K]                               -231.07539873 [Eh]

*** Psi4 exiting successfully. Buy a developer a beer!
