                               Psi4 1.3.2 release

  ==> Input File <==

--------------------------------------------------------------------------
set basis  aug-cc-pVDZ
molecule {
0 1
   C       -0.61446        0.00000        0.00000
   C        0.61446        0.00000        0.00000
   H       -1.68923        0.00000        0.00000
   H        1.68923        0.00000        0.00000
}
energy('MP2')
frequencies('MP2')
--------------------------------------------------------------------------

    Molecular point group: d2h
  Charge       = 0
  Multiplicity = 1
  Basis Set: AUG-CC-PVDZ
    Blend: AUG-CC-PVDZ
  Basis Set: (AUG-CC-PVDZ AUX)
    Blend: AUG-CC-PVDZ-JKFIT
  @DF-RHF Final Energy:   -76.82550624706707
    Total Energy =                        -76.8255062470670680
  Basis Set: (AUG-CC-PVDZ AUX)
    Blend: AUG-CC-PVDZ-RI
	 Reference Energy          =     -76.8255062470670680 [Eh]
	 Singles Energy            =      -0.0000000000000000 [Eh]
	 Same-Spin Energy          =      -0.0662510617722510 [Eh]
	 Opposite-Spin Energy      =      -0.2063956732030999 [Eh]
	 Correlation Energy        =      -0.2726467349753509 [Eh]
	 Total Energy              =     -77.0981529820424214 [Eh]
	 SCS Total Energy          =     -77.0952647421682116 [Eh]
    Molecular point group: d2h
  Basis Set: AUG-CC-PVDZ
    Blend: AUG-CC-PVDZ
  Basis Set: (AUG-CC-PVDZ AUX)
    Blend: AUG-CC-PVDZ-JKFIT
  @DF-RHF Final Energy:   -76.82550624706704
    Total Energy =                        -76.8255062470670396
  Basis Set: (AUG-CC-PVDZ AUX)
  @DF-RHF Final Energy:   -76.82550624706704
    Total Energy =                        -76.8255062470670396
  @DF-RHF Final Energy:   -76.82535926425837
    Total Energy =                        -76.8253592642583527
  @DF-RHF Final Energy:   -76.82564794750382
    Total Energy =                        -76.8256479475038248
  @DF-RHF Final Energy:   -76.82543449346136
    Total Energy =                        -76.8254344934613584
  @DF-RHF Final Energy:   -76.82556761657051
    Total Energy =                        -76.8255676165705097
  @DF-RHF Final Energy:   -76.82550596866766
    Total Energy =                        -76.8255059686676702
  @DF-RHF Final Energy:   -76.82550596863966
    Total Energy =                        -76.8255059686396606
  @DF-RHF Final Energy:   -76.82550587349945
    Total Energy =                        -76.8255058734994520
  @DF-RHF Final Energy:   -76.82550587352307
    Total Energy =                        -76.8255058735230705
    Molecular point group: c2v
  Charge       = 0
  Multiplicity = 1
  Basis Set: AUG-CC-PVDZ
    Blend: AUG-CC-PVDZ
  Basis Set: (AUG-CC-PVDZ AUX)
    Blend: AUG-CC-PVDZ-JKFIT

    Orbital Energies [Eh]
    ---------------------

    Doubly Occupied:

       1A1   -11.262359     2A1   -11.259168     3A1    -1.026041
       4A1    -0.767660     5A1    -0.676513     1B1    -0.405302
       1B2    -0.405302

  @DF-RHF Final Energy:   -76.82550061663738

   => Energetics <=

    Nuclear Repulsion Energy =             24.3232393838559098
    One-Electron Energy =                -150.6927862479592193
    Two-Electron Energy =                  49.5440462474659284
    Total Energy =                        -76.8255006166373846

  Dipole Moment: [D]
     X:     0.0044      Y:     0.0000      Z:     0.0000     Total:     0.0044

  Basis Set: (AUG-CC-PVDZ AUX)
    Blend: AUG-CC-PVDZ-RI
    Molecular point group: c2v

    Geometry (in Angstrom), charge = 0, multiplicity = 1:

       Center              X                  Y                   Z               Mass
    ------------   -----------------  -----------------  -----------------  -----------------
         C           -0.614610333491     0.000000000000     0.000000000000    12.000000000000
         C            0.614309666509     0.000000000000     0.000000000000    12.000000000000
         H           -1.687440004874     0.000000000000     0.000000000000     1.007825032230
         H            1.691019995126     0.000000000000     0.000000000000     1.007825032230

  Basis Set: AUG-CC-PVDZ
    Blend: AUG-CC-PVDZ
  Basis Set: (AUG-CC-PVDZ AUX)
    Blend: AUG-CC-PVDZ-JKFIT
  Basis Set: (AUG-CC-PVDZ AUX)
    Blend: AUG-CC-PVDZ-JKFIT
	 Reference Energy          =     -76.8255006166373846 [Eh]
	 Singles Energy            =      -0.0000000000000000 [Eh]
	 Same-Spin Energy          =      -0.0662510715960135 [Eh]
	 Opposite-Spin Energy      =      -0.2063957181530572 [Eh]
	 Correlation Energy        =      -0.2726467897490708 [Eh]
	 Total Energy              =     -77.0981474063864596 [Eh]

	 ================> DF-SCS-MP2 Energies <==================
	-----------------------------------------------------------
	 SCS Same-Spin Scale       =       0.3333333333333333 [-]
	 SCS Opposite-Spin Scale   =       1.2000000000000000 [-]
	 SCS Same-Spin Energy      =      -0.0220836905320045 [Eh]
	 SCS Opposite-Spin Energy  =      -0.2476748617836687 [Eh]
	 SCS Correlation Energy    =      -0.2697585523156732 [Eh]
	 SCS Total Energy          =     -77.0952591689530635 [Eh]
	-----------------------------------------------------------

  -Total Gradient:
     Atom            X                  Y                   Z
    ------   -----------------  -----------------  -----------------
       1        0.001792624730     0.000000000000     0.000000000000
       2       -0.004833628489     0.000000000000     0.000000000000
       3        0.001266164679     0.000000000000     0.000000000000
       4        0.001774839079     0.000000000000     0.000000000000

  Vibration                       6                   7                   8
  Freq [cm^-1]                 418.1890            418.1898            710.9152
  Irrep                          B2g                 B1g                 B1u
  Reduced mass [u]              1.5641              1.5641              1.0848
  Force const [mDyne/A]         0.1612              0.1612              0.3230

  Vibration                       9                   10                  11
  Freq [cm^-1]                 710.9155           1958.7140           3433.0476
  Irrep                          B2u                  Ag                 B3u
  Reduced mass [u]              1.0848              4.0703              1.0848
  Force const [mDyne/A]         0.3230              9.2007              7.5330

  Vibration                       12
  Freq [cm^-1]                3524.4934
  Irrep                           Ag
  Reduced mass [u]              1.2050
  Force const [mDyne/A]         8.8191

  ==> Thermochemistry Components <==

  Entropy, S
    Electronic S            0.000 [cal/(mol K)]        0.000 [J/(mol K)]       0.00000000 [mEh/K] (multiplicity = 1)
    Translational S        35.704 [cal/(mol K)]      149.387 [J/(mol K)]       0.05689862 [mEh/K] (mol. weight = 26.0157 [u], P = 101325.00 [Pa])
    Rotational S           10.952 [cal/(mol K)]       45.824 [J/(mol K)]       0.01745345 [mEh/K] (symmetry no. = 2)
    Vibrational S           2.385 [cal/(mol K)]        9.978 [J/(mol K)]       0.00380033 [mEh/K]
  Total S                  49.041 [cal/(mol K)]      205.189 [J/(mol K)]       0.07815239 [mEh/K]
  Correction S              0.000 [cal/(mol K)]        0.000 [J/(mol K)]       0.00000000 [mEh/K]

  Constant volume heat capacity, Cv
    Electronic Cv           0.000 [cal/(mol K)]        0.000 [J/(mol K)]       0.00000000 [mEh/K]
    Translational Cv        2.981 [cal/(mol K)]       12.472 [J/(mol K)]       0.00475022 [mEh/K]
    Rotational Cv           1.987 [cal/(mol K)]        8.314 [J/(mol K)]       0.00316681 [mEh/K]
    Vibrational Cv          4.492 [cal/(mol K)]       18.796 [J/(mol K)]       0.00715904 [mEh/K]
  Total Cv                  9.460 [cal/(mol K)]       39.582 [J/(mol K)]       0.01507607 [mEh/K]
  Correction Cv             0.000 [cal/(mol K)]        0.000 [J/(mol K)]       0.00000000 [mEh/K]

  Constant pressure heat capacity, Cp
    Electronic Cp           0.000 [cal/(mol K)]        0.000 [J/(mol K)]       0.00000000 [mEh/K]
    Translational Cp        4.968 [cal/(mol K)]       20.786 [J/(mol K)]       0.00791703 [mEh/K]
    Rotational Cp           1.987 [cal/(mol K)]        8.314 [J/(mol K)]       0.00316681 [mEh/K]
    Vibrational Cp          4.492 [cal/(mol K)]       18.796 [J/(mol K)]       0.00715904 [mEh/K]
  Total Cp                 11.448 [cal/(mol K)]       47.897 [J/(mol K)]       0.01824288 [mEh/K]
  Correction Cp             0.000 [cal/(mol K)]        0.000 [J/(mol K)]       0.00000000 [mEh/K]

  ==> Thermochemistry Energy Analysis <==

  Raw electronic energy, E0
  Total E0, Electronic energy at well bottom at 0 [K]                  -77.09815298 [Eh]

  Zero-point energy, ZPE_vib = Sum_i nu_i / 2
    Electronic ZPE          0.000 [kcal/mol]        0.000 [kJ/mol]       0.00000000 [Eh]
    Translational ZPE       0.000 [kcal/mol]        0.000 [kJ/mol]       0.00000000 [Eh]
    Rotational ZPE          0.000 [kcal/mol]        0.000 [kJ/mol]       0.00000000 [Eh]
    Vibrational ZPE        15.975 [kcal/mol]       66.838 [kJ/mol]       0.02545730 [Eh]        5587.232 [cm^-1]
  Correction ZPE           15.975 [kcal/mol]       66.838 [kJ/mol]       0.02545730 [Eh]        5587.232 [cm^-1]
  Total ZPE, Electronic energy at 0 [K]                                -77.07269568 [Eh]

  Thermal Energy, E (includes ZPE)
    Electronic E            0.000 [kcal/mol]        0.000 [kJ/mol]       0.00000000 [Eh]
    Translational E         0.889 [kcal/mol]        3.718 [kJ/mol]       0.00141628 [Eh]
    Rotational E            0.592 [kcal/mol]        2.479 [kJ/mol]       0.00094418 [Eh]
    Vibrational E          16.478 [kcal/mol]       68.943 [kJ/mol]       0.02625885 [Eh]
  Correction E             17.959 [kcal/mol]       75.140 [kJ/mol]       0.02861931 [Eh]
  Total E, Electronic energy at  298.15 [K]                            -77.06953367 [Eh]

  Enthalpy, H_trans = E_trans + k_B * T
    Electronic H            0.000 [kcal/mol]        0.000 [kJ/mol]       0.00000000 [Eh]
    Translational H         1.481 [kcal/mol]        6.197 [kJ/mol]       0.00236046 [Eh]
    Rotational H            0.592 [kcal/mol]        2.479 [kJ/mol]       0.00094418 [Eh]
    Vibrational H          16.478 [kcal/mol]       68.943 [kJ/mol]       0.02625885 [Eh]
  Correction H             18.551 [kcal/mol]       77.619 [kJ/mol]       0.02956350 [Eh]
  Total H, Enthalpy at  298.15 [K]                                     -77.06858948 [Eh]

  Gibbs free energy, G = H - T * S
    Electronic G            0.000 [kcal/mol]        0.000 [kJ/mol]       0.00000000 [Eh]
    Translational G        -9.164 [kcal/mol]      -38.342 [kJ/mol]      -0.01460386 [Eh]
    Rotational G           -2.673 [kcal/mol]      -11.183 [kJ/mol]      -0.00425956 [Eh]
    Vibrational G          15.767 [kcal/mol]       65.968 [kJ/mol]       0.02512578 [Eh]
  Correction G              3.930 [kcal/mol]       16.442 [kJ/mol]       0.00626236 [Eh]
  Total G, Free enthalpy at  298.15 [K]                                -77.09189062 [Eh]

*** Psi4 exiting successfully. Buy a developer a beer!
