                               Psi4 1.3.2 release

  ==> Input File <==

--------------------------------------------------------------------------
set basis  cc-pVTZ
molecule {
0 1
   C        0.32153        0.81326        0.00000
   C       -0.86505       -0.12817        0.00000
   C        0.54353       -0.68508        0.00000
   H        0.53795        1.36069       -0.92039
   H        0.53795        1.36069        0.92039
   H       -1.44742       -0.21449        0.92034
   H       -1.44742       -0.21449       -0.92034
   H        0.90937       -1.14629       -0.92037
   H        0.90937       -1.14629        0.92037
}
energy('m06-2x')
frequencies('m06-2x')
--------------------------------------------------------------------------

    Molecular point group: cs
  Charge       = 0
  Multiplicity = 1
  Basis Set: CC-PVTZ
    Blend: CC-PVTZ
  Basis Set: (CC-PVTZ AUX)
    Blend: CC-PVTZ-JKFIT
  @DF-RKS Final Energy:  -117.87704593690799
    Total Energy =                       -117.8770459369079759
    Molecular point group: cs
  Basis Set: CC-PVTZ
    Blend: CC-PVTZ
  Basis Set: (CC-PVTZ AUX)
    Blend: CC-PVTZ-JKFIT
  @DF-RKS Final Energy:  -117.87704594552815
    Total Energy =                       -117.8770459455281525
  Basis Set: CC-PVTZ
    Blend: CC-PVTZ
  Basis Set: (CC-PVTZ AUX)
    Blend: CC-PVTZ-JKFIT
  Basis Set: CC-PVTZ
    Blend: CC-PVTZ
  Basis Set: (CC-PVTZ AUX)
    Blend: CC-PVTZ-JKFIT
  @DF-RKS Final Energy:  -117.87704594552805
    Total Energy =                       -117.8770459455280530
  Basis Set: CC-PVTZ
  @DF-RKS Final Energy:  -117.87705695395903
    Total Energy =                       -117.8770569539590269
  @DF-RKS Final Energy:  -117.87705412952640
    Total Energy =                       -117.8770541295263996
  @DF-RKS Final Energy:  -117.87705221564050
    Total Energy =                       -117.8770522156405036
  @DF-RKS Final Energy:  -117.87703703829614
    Total Energy =                       -117.8770370382961374
  @DF-RKS Final Energy:  -117.87703757621441
    Total Energy =                       -117.8770375762144056
  @DF-RKS Final Energy:  -117.87705342121190
    Total Energy =                       -117.8770534212118974
  @DF-RKS Final Energy:  -117.87705350538808
    Total Energy =                       -117.8770535053880764
  @DF-RKS Final Energy:  -117.87705679800357
    Total Energy =                       -117.8770567980035651
  @DF-RKS Final Energy:  -117.87705519975013
    Total Energy =                       -117.8770551997501315
  @DF-RKS Final Energy:  -117.87704411130088
    Total Energy =                       -117.8770441113008758
  @DF-RKS Final Energy:  -117.87704429873291
    Total Energy =                       -117.8770442987329119
  @DF-RKS Final Energy:  -117.87704727466145
    Total Energy =                       -117.8770472746614359
  @DF-RKS Final Energy:  -117.87707393851900
    Total Energy =                       -117.8770739385190041
  @DF-RKS Final Energy:  -117.87703590410946
    Total Energy =                       -117.8770359041094622
  @DF-RKS Final Energy:  -117.87708204906177
    Total Energy =                       -117.8770820490617695
  @DF-RKS Final Energy:  -117.87700808992884
    Total Energy =                       -117.8770080899288359
  @DF-RKS Final Energy:  -117.87699029346160
    Total Energy =                       -117.8769902934616027
  @DF-RKS Final Energy:  -117.87709479189490
    Total Energy =                       -117.8770947918949048
  @DF-RKS Final Energy:  -117.87701894561663
    Total Energy =                       -117.8770189456166264
  @DF-RKS Final Energy:  -117.87710205121724
    Total Energy =                       -117.8771020512172356
  @DF-RKS Final Energy:  -117.87709484973962
    Total Energy =                       -117.8770948497396205
  @DF-RKS Final Energy:  -117.87699023184858
    Total Energy =                       -117.8769902318485805
  @DF-RKS Final Energy:  -117.87699039001257
    Total Energy =                       -117.8769903900125655
  @DF-RKS Final Energy:  -117.87709468854041
    Total Energy =                       -117.8770946885404101
  @DF-RKS Final Energy:  -117.87704407185575
    Total Energy =                       -117.8770440718557637
  @DF-RKS Final Energy:  -117.87704382506490
    Total Energy =                       -117.8770438250649022
  @DF-RKS Final Energy:  -117.87704308718919
    Total Energy =                       -117.8770430871891932
  @DF-RKS Final Energy:  -117.87704526965456
    Total Energy =                       -117.8770452696545590
  @DF-RKS Final Energy:  -117.87704374830351
    Total Energy =                       -117.8770437483034925
  @DF-RKS Final Energy:  -117.87704415180794
    Total Energy =                       -117.8770441518079366
  @DF-RKS Final Energy:  -117.87704371074824
    Total Energy =                       -117.8770437107482536
  Basis Set: (CC-PVTZ AUX)
    Blend: CC-PVTZ-JKFIT
  Basis Set: CC-PVTZ
    Blend: CC-PVTZ
  Basis Set: (CC-PVTZ AUX)
    Blend: CC-PVTZ-JKFIT
  @DF-RKS Final Energy:  -117.87704533581157
    Total Energy =                       -117.8770453358115731
  Basis Set: CC-PVTZ
    Blend: CC-PVTZ
  Basis Set: (CC-PVTZ AUX)
    Blend: CC-PVTZ-JKFIT
    Molecular point group: c1
  Charge       = 0
  Multiplicity = 1
  Basis Set: CC-PVTZ
    Blend: CC-PVTZ
  Basis Set: (CC-PVTZ AUX)
    Blend: CC-PVTZ-JKFIT

    Orbital Energies [Eh]
    ---------------------

    Doubly Occupied:

       1A    -10.539181     2A    -10.538579     3A    -10.538571
       4A     -0.943628     5A     -0.678508     6A     -0.678493
       7A     -0.565200     8A     -0.527662     9A     -0.424077
      10A     -0.424050    11A     -0.350520    12A     -0.350493

  @DF-RKS Final Energy:  -117.87704330813088

   => Energetics <=

    Nuclear Repulsion Energy =             75.2814718714328848
    One-Electron Energy =                -305.8782558023877414
    Two-Electron Energy =                 121.6280328454975148
    DFT Exchange-Correlation Energy =      -8.9082922226735199
    Empirical Dispersion Energy =           0.0000000000000000
    VV10 Nonlocal Energy =                  0.0000000000000000
    Total Energy =                       -117.8770433081308795

  Dipole Moment: [D]
     X:     0.0004      Y:    -0.0003      Z:    -0.0005     Total:     0.0007

    Molecular point group: c1

    Geometry (in Angstrom), charge = 0, multiplicity = 1:

       Center              X                  Y                   Z               Mass
    ------------   -----------------  -----------------  -----------------  -----------------
         C            0.321531939855     0.813261460475     0.000000000000    12.000000000000
         C           -0.865048060145    -0.128168539525     0.000000000000    12.000000000000
         C            0.543531939855    -0.685078539525     0.000000000000    12.000000000000
         H            0.537951939855     1.360691460475    -0.920390000000     1.007825032230
         H            0.537951939855     1.360691460475     0.920390000000     1.007825032230
         H           -1.447418060145    -0.214488539525     0.919737951237     1.007825032230
         H           -1.447418060145    -0.214488539525    -0.920942048763     1.007825032230
         H            0.907830274543    -1.145679013968    -0.919767951237     1.007825032230
         H            0.910913605168    -1.146898065083     0.920972048763     1.007825032230

  Basis Set: CC-PVTZ
    Blend: CC-PVTZ
  Basis Set: (CC-PVTZ AUX)
    Blend: CC-PVTZ-JKFIT

  -Total Gradient:
     Atom            X                  Y                   Z
    ------   -----------------  -----------------  -----------------
       1        0.001841757487     0.004638137690     0.000005786183
       2       -0.004887316931    -0.000686724687     0.000433948708
       3        0.003143933927    -0.003915015481    -0.001207508719
       4        0.001791442721     0.004504012880    -0.007435388736
       5        0.001794883123     0.004516944670     0.007432673233
       6       -0.004628225859    -0.000701013955     0.007146291843
       7       -0.004967021525    -0.000707844218    -0.007693525889
       8        0.002680028721    -0.003459295135    -0.006744286170
       9        0.003391540498    -0.004157637632     0.008060913154

  Vibration                       7                   8                   9
  Freq [cm^-1]                 799.5034            803.8784            887.2052
  Irrep                          App                 App                  Ap
  Reduced mass [u]              1.0216              1.0222              3.6395
  Force const [mDyne/A]         0.3847              0.3892              1.6879

  Vibration                       10                  11                  12
  Freq [cm^-1]                 893.7693            907.0370           1079.7007
  Irrep                           Ap                 App                  Ap
  Reduced mass [u]              4.1445              1.0439              1.2755
  Force const [mDyne/A]         1.9506              0.5060              0.8761

  Vibration                       13                  14                  15
  Freq [cm^-1]                1087.0059           1122.4305           1182.7277
  Irrep                           Ap                  Ap                 App
  Reduced mass [u]              1.2793              1.3828              1.0084
  Force const [mDyne/A]         0.8906              1.0264              0.8311

  Vibration                       16                  17                  18
  Freq [cm^-1]                1197.0390           1226.4051           1227.8583
  Irrep                           Ap                 App                 App
  Reduced mass [u]              2.6512              1.4459              1.4489
  Force const [mDyne/A]         2.2383              1.2813              1.2870

  Vibration                       19                  20                  21
  Freq [cm^-1]                1483.6794           1491.9700           1535.3655
  Irrep                           Ap                  Ap                  Ap
  Reduced mass [u]              1.0956              1.0903              1.2973
  Force const [mDyne/A]         1.4210              1.4299              1.8018

  Vibration                       22                  23                  24
  Freq [cm^-1]                3055.0013           3058.9931           3062.4700
  Irrep                           Ap                  Ap                  Ap
  Reduced mass [u]              1.0498              1.0509              1.0627
  Force const [mDyne/A]         5.7727              5.7938              5.8721

  Vibration                       25                  26                  27
  Freq [cm^-1]                3132.6238           3132.7321           3151.2478
  Irrep                          App                 App                 App
  Reduced mass [u]              1.1211              1.1211              1.1162
  Force const [mDyne/A]         6.4820              6.4825              6.5309

  ==> Thermochemistry Components <==

  Entropy, S
    Electronic S            0.000 [cal/(mol K)]        0.000 [J/(mol K)]       0.00000000 [mEh/K] (multiplicity = 1)
    Translational S        37.135 [cal/(mol K)]      155.375 [J/(mol K)]       0.05917914 [mEh/K] (mol. weight = 42.0470 [u], P = 101325.00 [Pa])
    Rotational S           21.699 [cal/(mol K)]       90.789 [J/(mol K)]       0.03457982 [mEh/K] (symmetry no. = 1)
    Vibrational S           1.223 [cal/(mol K)]        5.118 [J/(mol K)]       0.00194934 [mEh/K]
  Total S                  60.058 [cal/(mol K)]      251.282 [J/(mol K)]       0.09570830 [mEh/K]
  Correction S              0.000 [cal/(mol K)]        0.000 [J/(mol K)]       0.00000000 [mEh/K]

  Constant volume heat capacity, Cv
    Electronic Cv           0.000 [cal/(mol K)]        0.000 [J/(mol K)]       0.00000000 [mEh/K]
    Translational Cv        2.981 [cal/(mol K)]       12.472 [J/(mol K)]       0.00475022 [mEh/K]
    Rotational Cv           2.981 [cal/(mol K)]       12.472 [J/(mol K)]       0.00475022 [mEh/K]
    Vibrational Cv          4.685 [cal/(mol K)]       19.604 [J/(mol K)]       0.00746666 [mEh/K]
  Total Cv                 10.647 [cal/(mol K)]       44.547 [J/(mol K)]       0.01696709 [mEh/K]
  Correction Cv             0.000 [cal/(mol K)]        0.000 [J/(mol K)]       0.00000000 [mEh/K]

  Constant pressure heat capacity, Cp
    Electronic Cp           0.000 [cal/(mol K)]        0.000 [J/(mol K)]       0.00000000 [mEh/K]
    Translational Cp        4.968 [cal/(mol K)]       20.786 [J/(mol K)]       0.00791703 [mEh/K]
    Rotational Cp           2.981 [cal/(mol K)]       12.472 [J/(mol K)]       0.00475022 [mEh/K]
    Vibrational Cp          4.685 [cal/(mol K)]       19.604 [J/(mol K)]       0.00746666 [mEh/K]
  Total Cp                 12.634 [cal/(mol K)]       52.862 [J/(mol K)]       0.02013390 [mEh/K]
  Correction Cp             0.000 [cal/(mol K)]        0.000 [J/(mol K)]       0.00000000 [mEh/K]

  ==> Thermochemistry Energy Analysis <==

  Raw electronic energy, E0
  Total E0, Electronic energy at well bottom at 0 [K]                 -117.87704595 [Eh]

  Zero-point energy, ZPE_vib = Sum_i nu_i / 2
    Electronic ZPE          0.000 [kcal/mol]        0.000 [kJ/mol]       0.00000000 [Eh]
    Translational ZPE       0.000 [kcal/mol]        0.000 [kJ/mol]       0.00000000 [Eh]
    Rotational ZPE          0.000 [kcal/mol]        0.000 [kJ/mol]       0.00000000 [Eh]
    Vibrational ZPE        50.776 [kcal/mol]      212.449 [kJ/mol]       0.08091742 [Eh]       17759.322 [cm^-1]
  Correction ZPE           50.776 [kcal/mol]      212.449 [kJ/mol]       0.08091742 [Eh]       17759.322 [cm^-1]
  Total ZPE, Electronic energy at 0 [K]                               -117.79612852 [Eh]

  Thermal Energy, E (includes ZPE)
    Electronic E            0.000 [kcal/mol]        0.000 [kJ/mol]       0.00000000 [Eh]
    Translational E         0.889 [kcal/mol]        3.718 [kJ/mol]       0.00141628 [Eh]
    Rotational E            0.889 [kcal/mol]        3.718 [kJ/mol]       0.00141628 [Eh]
    Vibrational E          51.075 [kcal/mol]      213.698 [kJ/mol]       0.08139343 [Eh]
  Correction E             52.853 [kcal/mol]      221.135 [kJ/mol]       0.08422599 [Eh]
  Total E, Electronic energy at  298.15 [K]                           -117.79281996 [Eh]

  Enthalpy, H_trans = E_trans + k_B * T
    Electronic H            0.000 [kcal/mol]        0.000 [kJ/mol]       0.00000000 [Eh]
    Translational H         1.481 [kcal/mol]        6.197 [kJ/mol]       0.00236046 [Eh]
    Rotational H            0.889 [kcal/mol]        3.718 [kJ/mol]       0.00141628 [Eh]
    Vibrational H          51.075 [kcal/mol]      213.698 [kJ/mol]       0.08139343 [Eh]
  Correction H             53.445 [kcal/mol]      223.614 [kJ/mol]       0.08517017 [Eh]
  Total H, Enthalpy at  298.15 [K]                                    -117.79187578 [Eh]

  Gibbs free energy, G = H - T * S
    Electronic G            0.000 [kcal/mol]        0.000 [kJ/mol]       0.00000000 [Eh]
    Translational G        -9.591 [kcal/mol]      -40.128 [kJ/mol]      -0.01528380 [Eh]
    Rotational G           -5.581 [kcal/mol]      -23.350 [kJ/mol]      -0.00889370 [Eh]
    Vibrational G          50.710 [kcal/mol]      212.172 [kJ/mol]       0.08081224 [Eh]
  Correction G             35.539 [kcal/mol]      148.694 [kJ/mol]       0.05663474 [Eh]
  Total G, Free enthalpy at  298.15 [K]                               -117.82041120 [Eh]

*** Psi4 exiting successfully. Buy a developer a beer!
