                               Psi4 1.3.2 release

  ==> Input File <==

--------------------------------------------------------------------------
set basis  6-31g
molecule {
0 1
   C       -0.61446        0.00000        0.00000
   C        0.61446        0.00000        0.00000
   H       -1.68923        0.00000        0.00000
   H        1.68923        0.00000        0.00000
}
energy('m06-2x')
frequencies('m06-2x')
--------------------------------------------------------------------------

    Molecular point group: d2h
  Charge       = 0
  Multiplicity = 1
  Basis Set: 6-31G
    Blend: 6-31G
  Basis Set: (6-31G AUX)
    Blend: CC-PVDZ-JKFIT
  @DF-RKS Final Energy:   -77.27273896628981
    Total Energy =                        -77.2727389662897934
    Molecular point group: d2h
  Basis Set: 6-31G
    Blend: 6-31G
  Basis Set: (6-31G AUX)
    Blend: CC-PVDZ-JKFIT
  @DF-RKS Final Energy:   -77.27273896629113
    Total Energy =                        -77.2727389662911293
  Basis Set: 6-31G
    Blend: 6-31G
  Basis Set: (6-31G AUX)
    Blend: CC-PVDZ-JKFIT
  Basis Set: 6-31G
    Blend: 6-31G
  Basis Set: (6-31G AUX)
    Blend: CC-PVDZ-JKFIT
  @DF-RKS Final Energy:   -77.27273896629113
    Total Energy =                        -77.2727389662911293
  Basis Set: 6-31G
  @DF-RKS Final Energy:   -77.27266043715711
    Total Energy =                        -77.2726604371571000
  @DF-RKS Final Energy:   -77.27281230233487
    Total Energy =                        -77.2728123023348701
  @DF-RKS Final Energy:   -77.27268059221355
    Total Energy =                        -77.2726805922135611
  @DF-RKS Final Energy:   -77.27278738432925
    Total Energy =                        -77.2727873843292485
  @DF-RKS Final Energy:   -77.27273883264792
    Total Energy =                        -77.2727388326479172
  @DF-RKS Final Energy:   -77.27273877880717
    Total Energy =                        -77.2727387788071667
  @DF-RKS Final Energy:   -77.27273883271147
    Total Energy =                        -77.2727388327114681
  @DF-RKS Final Energy:   -77.27273877885996
    Total Energy =                        -77.2727387788599600
  @DF-RKS Final Energy:   -77.27273862118926
    Total Energy =                        -77.2727386211892764
  Basis Set: (6-31G AUX)
    Blend: CC-PVDZ-JKFIT
  Basis Set: 6-31G
    Blend: 6-31G
  Basis Set: (6-31G AUX)
    Blend: CC-PVDZ-JKFIT
  @DF-RKS Final Energy:   -77.27273862118437
    Total Energy =                        -77.2727386211843736
  Basis Set: 6-31G
    Blend: 6-31G
  Basis Set: (6-31G AUX)
    Blend: CC-PVDZ-JKFIT
    Molecular point group: c2v
  Charge       = 0
  Multiplicity = 1
  Basis Set: 6-31G
    Blend: 6-31G
  Basis Set: (6-31G AUX)
    Blend: CC-PVDZ-JKFIT

    Orbital Energies [Eh]
    ---------------------

    Doubly Occupied:

       1A1   -10.558133     2A1   -10.555925     3A1    -0.839130
       4A1    -0.636002     5A1    -0.556099     1B2    -0.341927
       1B1    -0.341927

  @DF-RKS Final Energy:   -77.27273358377148

   => Energetics <=

    Nuclear Repulsion Energy =             24.3232393838559098
    One-Electron Energy =                -150.9815957949549272
    Two-Electron Energy =                  54.9060954668643433
    DFT Exchange-Correlation Energy =      -5.5204726395368100
    Empirical Dispersion Energy =           0.0000000000000000
    VV10 Nonlocal Energy =                  0.0000000000000000
    Total Energy =                        -77.2727335837714833

  Dipole Moment: [D]
     X:     0.0040      Y:     0.0000      Z:     0.0000     Total:     0.0040

    Molecular point group: c2v

    Geometry (in Angstrom), charge = 0, multiplicity = 1:

       Center              X                  Y                   Z               Mass
    ------------   -----------------  -----------------  -----------------  -----------------
         C           -0.614610333491     0.000000000000     0.000000000000    12.000000000000
         C            0.614309666509     0.000000000000     0.000000000000    12.000000000000
         H           -1.687440004874     0.000000000000     0.000000000000     1.007825032230
         H            1.691019995126     0.000000000000     0.000000000000     1.007825032230

  Basis Set: 6-31G
    Blend: 6-31G
  Basis Set: (6-31G AUX)
    Blend: CC-PVDZ-JKFIT

  -Total Gradient:
     Atom            X                  Y                   Z
    ------   -----------------  -----------------  -----------------
       1       -0.038559494577     0.000000000000     0.000000000000
       2        0.035624751915     0.000000000000     0.000000000000
       3       -0.006082419217     0.000000000000     0.000000000000
       4        0.009016860919     0.000000000000     0.000000000000

  Vibration                       4                   5                   6
  Freq [cm^-1]                 258.9683            258.9683            781.5997
  Irrep                          B1g                 B2g                 B2g
  Reduced mass [u]              2.2431              2.2431              1.5879
  Force const [mDyne/A]         0.0886              0.0886              0.5715

  Vibration                       7                   8                   9
  Freq [cm^-1]                 781.5998            851.8076            851.8077
  Irrep                          B1g                 B2u                 B1u
  Reduced mass [u]              1.5879              1.0848              1.0848
  Force const [mDyne/A]         0.5715              0.4638              0.4638

  Vibration                       10                  11                  12
  Freq [cm^-1]                1986.7004           3372.3747           3473.0868
  Irrep                           Ag                 B3u                  Ag
  Reduced mass [u]              3.9020              1.0848              1.2206
  Force const [mDyne/A]         9.0741              7.2691              8.6745

  ==> Thermochemistry Components <==

  Entropy, S
    Electronic S            0.000 [cal/(mol K)]        0.000 [J/(mol K)]       0.00000000 [mEh/K] (multiplicity = 1)
    Translational S        35.704 [cal/(mol K)]      149.387 [J/(mol K)]       0.05689862 [mEh/K] (mol. weight = 26.0157 [u], P = 101325.00 [Pa])
    Rotational S           10.952 [cal/(mol K)]       45.824 [J/(mol K)]       0.01745345 [mEh/K] (symmetry no. = 2)
    Vibrational S           4.123 [cal/(mol K)]       17.249 [J/(mol K)]       0.00656974 [mEh/K]
  Total S                  50.779 [cal/(mol K)]      212.460 [J/(mol K)]       0.08092181 [mEh/K]
  Correction S              0.000 [cal/(mol K)]        0.000 [J/(mol K)]       0.00000000 [mEh/K]

  Constant volume heat capacity, Cv
    Electronic Cv           0.000 [cal/(mol K)]        0.000 [J/(mol K)]       0.00000000 [mEh/K]
    Translational Cv        2.981 [cal/(mol K)]       12.472 [J/(mol K)]       0.00475022 [mEh/K]
    Rotational Cv           1.987 [cal/(mol K)]        8.314 [J/(mol K)]       0.00316681 [mEh/K]
    Vibrational Cv          6.009 [cal/(mol K)]       25.142 [J/(mol K)]       0.00957619 [mEh/K]
  Total Cv                 10.977 [cal/(mol K)]       45.928 [J/(mol K)]       0.01749322 [mEh/K]
  Correction Cv             0.000 [cal/(mol K)]        0.000 [J/(mol K)]       0.00000000 [mEh/K]

  Constant pressure heat capacity, Cp
    Electronic Cp           0.000 [cal/(mol K)]        0.000 [J/(mol K)]       0.00000000 [mEh/K]
    Translational Cp        4.968 [cal/(mol K)]       20.786 [J/(mol K)]       0.00791703 [mEh/K]
    Rotational Cp           1.987 [cal/(mol K)]        8.314 [J/(mol K)]       0.00316681 [mEh/K]
    Vibrational Cp          6.009 [cal/(mol K)]       25.142 [J/(mol K)]       0.00957619 [mEh/K]
  Total Cp                 12.964 [cal/(mol K)]       54.243 [J/(mol K)]       0.02066003 [mEh/K]
  Correction Cp             0.000 [cal/(mol K)]        0.000 [J/(mol K)]       0.00000000 [mEh/K]

  ==> Thermochemistry Energy Analysis <==

  Raw electronic energy, E0
  Total E0, Electronic energy at well bottom at 0 [K]                  -77.27273897 [Eh]

  Zero-point energy, ZPE_vib = Sum_i nu_i / 2
    Electronic ZPE          0.000 [kcal/mol]        0.000 [kJ/mol]       0.00000000 [Eh]
    Translational ZPE       0.000 [kcal/mol]        0.000 [kJ/mol]       0.00000000 [Eh]
    Rotational ZPE          0.000 [kcal/mol]        0.000 [kJ/mol]       0.00000000 [Eh]
    Vibrational ZPE        18.037 [kcal/mol]       75.466 [kJ/mol]       0.02874344 [Eh]        6308.457 [cm^-1]
  Correction ZPE           18.037 [kcal/mol]       75.466 [kJ/mol]       0.02874344 [Eh]        6308.457 [cm^-1]
  Total ZPE, Electronic energy at 0 [K]                                -77.24399552 [Eh]

  Thermal Energy, E (includes ZPE)
    Electronic E            0.000 [kcal/mol]        0.000 [kJ/mol]       0.00000000 [Eh]
    Translational E         0.889 [kcal/mol]        3.718 [kJ/mol]       0.00141628 [Eh]
    Rotational E            0.592 [kcal/mol]        2.479 [kJ/mol]       0.00094418 [Eh]
    Vibrational E          18.819 [kcal/mol]       78.737 [kJ/mol]       0.02998926 [Eh]
  Correction E             20.300 [kcal/mol]       84.934 [kJ/mol]       0.03234972 [Eh]
  Total E, Electronic energy at  298.15 [K]                            -77.24038925 [Eh]

  Enthalpy, H_trans = E_trans + k_B * T
    Electronic H            0.000 [kcal/mol]        0.000 [kJ/mol]       0.00000000 [Eh]
    Translational H         1.481 [kcal/mol]        6.197 [kJ/mol]       0.00236046 [Eh]
    Rotational H            0.592 [kcal/mol]        2.479 [kJ/mol]       0.00094418 [Eh]
    Vibrational H          18.819 [kcal/mol]       78.737 [kJ/mol]       0.02998926 [Eh]
  Correction H             20.892 [kcal/mol]       87.413 [kJ/mol]       0.03329390 [Eh]
  Total H, Enthalpy at  298.15 [K]                                     -77.23944506 [Eh]

  Gibbs free energy, G = H - T * S
    Electronic G            0.000 [kcal/mol]        0.000 [kJ/mol]       0.00000000 [Eh]
    Translational G        -9.164 [kcal/mol]      -38.342 [kJ/mol]      -0.01460386 [Eh]
    Rotational G           -2.673 [kcal/mol]      -11.183 [kJ/mol]      -0.00425956 [Eh]
    Vibrational G          17.589 [kcal/mol]       73.594 [kJ/mol]       0.02803049 [Eh]
  Correction G              5.752 [kcal/mol]       24.068 [kJ/mol]       0.00916707 [Eh]
  Total G, Free enthalpy at  298.15 [K]                                -77.26357190 [Eh]

*** Psi4 exiting successfully. Buy a developer a beer!
