                               Psi4 1.3.2 release

  ==> Input File <==

--------------------------------------------------------------------------
set basis  6-31+G*
molecule {
0 1
   C       -1.22151       -0.69325        0.00000
   C       -1.21114        0.71122        0.00000
   C       -0.01037       -1.40452        0.00000
   C        0.01037        1.40452        0.00000
   C        1.21114       -0.71122        0.00000
   C        1.22151        0.69325        0.00000
   H       -2.17311       -1.23332        0.00000
   H       -2.15464        1.26533        0.00000
   H       -0.01848       -2.49865        0.00000
   H        0.01848        2.49865        0.00000
   H        2.15464       -1.26533        0.00000
   H        2.17311        1.23332        0.00000
}
energy('MP2')
frequencies('MP2')
--------------------------------------------------------------------------

    Molecular point group: c2h
  Charge       = 0
  Multiplicity = 1
  Basis Set: 6-31+G*
    Blend: 6-31+G*
  Basis Set: (6-31+G* AUX)
    Blend: HEAVY-AUG-CC-PVDZ-JKFIT
  @DF-RHF Final Energy:  -230.70768217829882
    Total Energy =                       -230.7076821782988532
  Basis Set: (6-31+G* AUX)
    Blend: HEAVY-AUG-CC-PVDZ-RI
	 Reference Energy          =    -230.7076821782988247 [Eh]
	 Singles Energy            =      -0.0000000000000000 [Eh]
	 Same-Spin Energy          =      -0.2084093986335855 [Eh]
	 Opposite-Spin Energy      =      -0.5848699686561649 [Eh]
	 Correlation Energy        =      -0.7932793672897505 [Eh]
	 Total Energy              =    -231.5009615455885807 [Eh]
	 SCS Total Energy          =    -231.4789959402307602 [Eh]
    Molecular point group: c2h
  Basis Set: 6-31+G*
    Blend: 6-31+G*
  Basis Set: (6-31+G* AUX)
    Blend: HEAVY-AUG-CC-PVDZ-JKFIT
  @DF-RHF Final Energy:  -230.70768217705276
    Total Energy =                       -230.7076821770527317
  Basis Set: (6-31+G* AUX)
  @DF-RHF Final Energy:  -230.70768217781909
    Total Energy =                       -230.7076821778190947
  @DF-RHF Final Energy:  -230.70767450099726
    Total Energy =                       -230.7076745009972569
  @DF-RHF Final Energy:  -230.70768810700469
    Total Energy =                       -230.7076881070046852
  @DF-RHF Final Energy:  -230.70767788557652
    Total Energy =                       -230.7076778855765156
  @DF-RHF Final Energy:  -230.70768434815540
    Total Energy =                       -230.7076843481553965
  @DF-RHF Final Energy:  -230.70767438374770
    Total Energy =                       -230.7076743837477011
  @DF-RHF Final Energy:  -230.70768806091232
    Total Energy =                       -230.7076880609123464
  @DF-RHF Final Energy:  -230.70768433879982
    Total Energy =                       -230.7076843387998224
  @DF-RHF Final Energy:  -230.70767805897935
    Total Energy =                       -230.7076780589793543
  @DF-RHF Final Energy:  -230.70768102708553
    Total Energy =                       -230.7076810270855276
  @DF-RHF Final Energy:  -230.70768111197185
    Total Energy =                       -230.7076811119718514
  @DF-RHF Final Energy:  -230.70767372916467
    Total Energy =                       -230.7076737291646396
  @DF-RHF Final Energy:  -230.70768899329940
    Total Energy =                       -230.7076889932993708
  @DF-RHF Final Energy:  -230.70759057759682
    Total Energy =                       -230.7075905775968181
  @DF-RHF Final Energy:  -230.70776610633823
    Total Energy =                       -230.7077661063382266
  @DF-RHF Final Energy:  -230.70763993363468
    Total Energy =                       -230.7076399336347095
  @DF-RHF Final Energy:  -230.70772136413601
    Total Energy =                       -230.7077213641359776
  @DF-RHF Final Energy:  -230.70758887746405
    Total Energy =                       -230.7075888774640475
  @DF-RHF Final Energy:  -230.70777439815305
    Total Energy =                       -230.7077743981530489
  @DF-RHF Final Energy:  -230.70768176455090
    Total Energy =                       -230.7076817645508982
  @DF-RHF Final Energy:  -230.70768170299368
    Total Energy =                       -230.7076817029936819
  @DF-RHF Final Energy:  -230.70768169128087
    Total Energy =                       -230.7076816912808681
  @DF-RHF Final Energy:  -230.70768160418541
    Total Energy =                       -230.7076816041853817
  @DF-RHF Final Energy:  -230.70768192240763
    Total Energy =                       -230.7076819224076303
  @DF-RHF Final Energy:  -230.70768191866739
    Total Energy =                       -230.7076819186673902
  @DF-RHF Final Energy:  -230.70768184467630
    Total Energy =                       -230.7076818446763014
  @DF-RHF Final Energy:  -230.70768168581191
    Total Energy =                       -230.7076816858119059
  @DF-RHF Final Energy:  -230.70768168540508
    Total Energy =                       -230.7076816854050776
  @DF-RHF Final Energy:  -230.70768108586915
    Total Energy =                       -230.7076810858691260
  @DF-RHF Final Energy:  -230.70768126252992
    Total Energy =                       -230.7076812625299453
  @DF-RHF Final Energy:  -230.70768093796181
    Total Energy =                       -230.7076809379618112
  @DF-RHF Final Energy:  -230.70768116498724
    Total Energy =                       -230.7076811649872639
  @DF-RHF Final Energy:  -230.70767971868531
    Total Energy =                       -230.7076797186853128
  @DF-RHF Final Energy:  -230.70767932260611
    Total Energy =                       -230.7076793226061113
  @DF-RHF Final Energy:  -230.70767904006334
    Total Energy =                       -230.7076790400633399
  @DF-RHF Final Energy:  -230.70767996601461
    Total Energy =                       -230.7076799660146094
  @DF-RHF Final Energy:  -230.70767996997867
    Total Energy =                       -230.7076799699786989
    Molecular point group: cs
  Charge       = 0
  Multiplicity = 1
  Basis Set: 6-31+G*
    Blend: 6-31+G*
  Basis Set: (6-31+G* AUX)
    Blend: HEAVY-AUG-CC-PVDZ-JKFIT

    Orbital Energies [Eh]
    ---------------------

    Doubly Occupied:

       1Ap   -11.247252     2Ap   -11.246713     3Ap   -11.246694
       4Ap   -11.245558     5Ap   -11.245541     6Ap   -11.244982
       7Ap    -1.146742     8Ap    -1.013251     9Ap    -1.013245
      10Ap    -0.822739    11Ap    -0.822726    12Ap    -0.705549
      13Ap    -0.644390    14Ap    -0.616908    15Ap    -0.587339
      16Ap    -0.587336     1App   -0.497402    17Ap    -0.495760
      18Ap    -0.495731     2App   -0.334971     3App   -0.334961

  @DF-RHF Final Energy:  -230.70767903975872

   => Energetics <=

    Nuclear Repulsion Energy =            202.0133184684007119
    One-Electron Energy =                -710.2504161764112496
    Two-Electron Energy =                 277.5294186682518216
    Total Energy =                       -230.7076790397587160

  Dipole Moment: [D]
     X:    -0.0011      Y:    -0.0019      Z:     0.0000     Total:     0.0022

  Basis Set: (6-31+G* AUX)
    Blend: HEAVY-AUG-CC-PVDZ-RI
    Molecular point group: cs

    Geometry (in Angstrom), charge = 0, multiplicity = 1:

       Center              X                  Y                   Z               Mass
    ------------   -----------------  -----------------  -----------------  -----------------
         C           -1.221510000000    -0.693250000000     0.000000000000    12.000000000000
         C           -1.211140000000     0.711220000000     0.000000000000    12.000000000000
         C           -0.010370000000    -1.404520000000     0.000000000000    12.000000000000
         C            0.010370000000     1.404520000000     0.000000000000    12.000000000000
         C            1.211140000000    -0.711220000000     0.000000000000    12.000000000000
         C            1.221510000000     0.693250000000     0.000000000000    12.000000000000
         H           -2.173110000000    -1.233320000000     0.000000000000     1.007825032230
         H           -2.154640000000     1.264012202829     0.000000000000     1.007825032230
         H           -0.018480000000    -2.497332202829     0.000000000000     1.007825032230
         H            0.018480000000     2.499967797171     0.000000000000     1.007825032230
         H            2.154640000000    -1.266647797171     0.000000000000     1.007825032230
         H            2.173110000000     1.233320000000     0.000000000000     1.007825032230

  Basis Set: 6-31+G*
    Blend: 6-31+G*
  Basis Set: (6-31+G* AUX)
    Blend: HEAVY-AUG-CC-PVDZ-JKFIT
  Basis Set: (6-31+G* AUX)
    Blend: HEAVY-AUG-CC-PVDZ-JKFIT
	 Reference Energy          =    -230.7076790397587160 [Eh]
	 Singles Energy            =      -0.0000000000000000 [Eh]
	 Same-Spin Energy          =      -0.2084094240955057 [Eh]
	 Opposite-Spin Energy      =      -0.5848700488530223 [Eh]
	 Correlation Energy        =      -0.7932794729485280 [Eh]
	 Total Energy              =    -231.5009585127072569 [Eh]

	 ================> DF-SCS-MP2 Energies <==================
	-----------------------------------------------------------
	 SCS Same-Spin Scale       =       0.3333333333333333 [-]
	 SCS Opposite-Spin Scale   =       1.2000000000000000 [-]
	 SCS Same-Spin Energy      =      -0.0694698080318352 [Eh]
	 SCS Opposite-Spin Energy  =      -0.7018440586236268 [Eh]
	 SCS Correlation Energy    =      -0.7713138666554620 [Eh]
	 SCS Total Energy          =    -231.4789929064141916 [Eh]
	-----------------------------------------------------------

  -Total Gradient:
     Atom            X                  Y                   Z
    ------   -----------------  -----------------  -----------------
       1       -0.002018672240    -0.001063915237     0.000000000000
       2       -0.002203402271     0.001395020465     0.000000000000
       3        0.000028905409    -0.003108625479     0.000000000000
       4        0.000045750323     0.001414016572     0.000000000000
       5        0.001645060536    -0.000782266696     0.000000000000
       6        0.001860362916     0.001072040204     0.000000000000
       7       -0.003891863703    -0.002214526449     0.000000000000
       8       -0.003546308268     0.001936698096     0.000000000000
       9       -0.000035095638    -0.003590105582     0.000000000000
      10        0.000036911055     0.005347473107     0.000000000000
      11        0.004178473193    -0.002614578759     0.000000000000
      12        0.003899878686     0.002208769758     0.000000000000

  Vibration                       7                   8                   9
  Freq [cm^-1]                 266.2830            396.9511            396.9936
  Irrep                           Bg                  Au                  Au
  Reduced mass [u]             11.9932              3.3752              3.3746
  Force const [mDyne/A]         0.5010              0.3133              0.3134

  Vibration                       10                  11                  12
  Freq [cm^-1]                 620.3357            620.3646            713.7515
  Irrep                           Ag                  Ag                  Au
  Reduced mass [u]              6.1977              6.1979              1.0848
  Force const [mDyne/A]         1.4052              1.4054              0.3256

  Vibration                       13                  14                  15
  Freq [cm^-1]                 860.7286            860.7901            889.1463
  Irrep                           Bg                  Bg                  Bg
  Reduced mass [u]              1.2479              1.2479              1.0079
  Force const [mDyne/A]         0.5447              0.5448              0.4695

  Vibration                       16                  17                  18
  Freq [cm^-1]                 910.3274            910.4011           1002.4147
  Irrep                           Au                  Au                  Ag
  Reduced mass [u]              1.2833              1.2832              5.9888
  Force const [mDyne/A]         0.6266              0.6266              3.5456

  Vibration                       19                  20                  21
  Freq [cm^-1]                1015.9097           1071.9099           1072.0931
  Irrep                           Bu                  Bu                  Bu
  Reduced mass [u]              6.4900              1.8043              1.8035
  Force const [mDyne/A]         3.9464              1.2214              1.2213

  Vibration                       22                  23                  24
  Freq [cm^-1]                1213.8035           1227.8225           1227.9108
  Irrep                           Bu                  Ag                  Ag
  Reduced mass [u]              1.0585              1.1526              1.1526
  Force const [mDyne/A]         0.9188              1.0238              1.0239

  Vibration                       25                  26                  27
  Freq [cm^-1]                1397.5133           1435.2450           1526.4528
  Irrep                           Ag                  Bu                  Bu
  Reduced mass [u]              1.2479              7.6433              1.8840
  Force const [mDyne/A]         1.4359              9.2764              2.5864

  Vibration                       28                  29                  30
  Freq [cm^-1]                1526.5163           1639.8526           1640.0355
  Irrep                           Bu                  Ag                  Ag
  Reduced mass [u]              1.8835              4.9005              4.8997
  Force const [mDyne/A]         2.5860              7.7643              7.7647

  Vibration                       31                  32                  33
  Freq [cm^-1]                3150.0609           3159.7756           3159.9880
  Irrep                           Bu                  Ag                  Ag
  Reduced mass [u]              1.0852              1.0892              1.0892
  Force const [mDyne/A]         6.3445              6.4071              6.4080

  Vibration                       34                  35                  36
  Freq [cm^-1]                3175.0505           3175.2669           3184.2225
  Irrep                           Bu                  Bu                  Ag
  Reduced mass [u]              1.0963              1.0962              1.1006
  Force const [mDyne/A]         6.5115              6.5121              6.5749

  ==> Thermochemistry Components <==

  Entropy, S
    Electronic S            0.000 [cal/(mol K)]        0.000 [J/(mol K)]       0.00000000 [mEh/K] (multiplicity = 1)
    Translational S        38.979 [cal/(mol K)]      163.089 [J/(mol K)]       0.06211726 [mEh/K] (mol. weight = 78.0470 [u], P = 101325.00 [Pa])
    Rotational S           24.318 [cal/(mol K)]      101.746 [J/(mol K)]       0.03875307 [mEh/K] (symmetry no. = 2)
    Vibrational S           5.931 [cal/(mol K)]       24.814 [J/(mol K)]       0.00945110 [mEh/K]
  Total S                  69.228 [cal/(mol K)]      289.649 [J/(mol K)]       0.11032143 [mEh/K]
  Correction S              0.000 [cal/(mol K)]        0.000 [J/(mol K)]       0.00000000 [mEh/K]

  Constant volume heat capacity, Cv
    Electronic Cv           0.000 [cal/(mol K)]        0.000 [J/(mol K)]       0.00000000 [mEh/K]
    Translational Cv        2.981 [cal/(mol K)]       12.472 [J/(mol K)]       0.00475022 [mEh/K]
    Rotational Cv           2.981 [cal/(mol K)]       12.472 [J/(mol K)]       0.00475022 [mEh/K]
    Vibrational Cv         12.412 [cal/(mol K)]       51.931 [J/(mol K)]       0.01977931 [mEh/K]
  Total Cv                 18.373 [cal/(mol K)]       76.874 [J/(mol K)]       0.02927974 [mEh/K]
  Correction Cv             0.000 [cal/(mol K)]        0.000 [J/(mol K)]       0.00000000 [mEh/K]

  Constant pressure heat capacity, Cp
    Electronic Cp           0.000 [cal/(mol K)]        0.000 [J/(mol K)]       0.00000000 [mEh/K]
    Translational Cp        4.968 [cal/(mol K)]       20.786 [J/(mol K)]       0.00791703 [mEh/K]
    Rotational Cp           2.981 [cal/(mol K)]       12.472 [J/(mol K)]       0.00475022 [mEh/K]
    Vibrational Cp         12.412 [cal/(mol K)]       51.931 [J/(mol K)]       0.01977931 [mEh/K]
  Total Cp                 20.361 [cal/(mol K)]       85.188 [J/(mol K)]       0.03244655 [mEh/K]
  Correction Cp             0.000 [cal/(mol K)]        0.000 [J/(mol K)]       0.00000000 [mEh/K]

  ==> Thermochemistry Energy Analysis <==

  Raw electronic energy, E0
  Total E0, Electronic energy at well bottom at 0 [K]                 -231.50096154 [Eh]

  Zero-point energy, ZPE_vib = Sum_i nu_i / 2
    Electronic ZPE          0.000 [kcal/mol]        0.000 [kJ/mol]       0.00000000 [Eh]
    Translational ZPE       0.000 [kcal/mol]        0.000 [kJ/mol]       0.00000000 [Eh]
    Rotational ZPE          0.000 [kcal/mol]        0.000 [kJ/mol]       0.00000000 [Eh]
    Vibrational ZPE        62.112 [kcal/mol]      259.876 [kJ/mol]       0.09898164 [Eh]       21723.958 [cm^-1]
  Correction ZPE           62.112 [kcal/mol]      259.876 [kJ/mol]       0.09898164 [Eh]       21723.958 [cm^-1]
  Total ZPE, Electronic energy at 0 [K]                               -231.40197991 [Eh]

  Thermal Energy, E (includes ZPE)
    Electronic E            0.000 [kcal/mol]        0.000 [kJ/mol]       0.00000000 [Eh]
    Translational E         0.889 [kcal/mol]        3.718 [kJ/mol]       0.00141628 [Eh]
    Rotational E            0.889 [kcal/mol]        3.718 [kJ/mol]       0.00141628 [Eh]
    Vibrational E          63.355 [kcal/mol]      265.075 [kJ/mol]       0.10096184 [Eh]
  Correction E             65.132 [kcal/mol]      272.512 [kJ/mol]       0.10379439 [Eh]
  Total E, Electronic energy at  298.15 [K]                           -231.39716716 [Eh]

  Enthalpy, H_trans = E_trans + k_B * T
    Electronic H            0.000 [kcal/mol]        0.000 [kJ/mol]       0.00000000 [Eh]
    Translational H         1.481 [kcal/mol]        6.197 [kJ/mol]       0.00236046 [Eh]
    Rotational H            0.889 [kcal/mol]        3.718 [kJ/mol]       0.00141628 [Eh]
    Vibrational H          63.355 [kcal/mol]      265.075 [kJ/mol]       0.10096184 [Eh]
  Correction H             65.724 [kcal/mol]      274.991 [kJ/mol]       0.10473857 [Eh]
  Total H, Enthalpy at  298.15 [K]                                    -231.39622297 [Eh]

  Gibbs free energy, G = H - T * S
    Electronic G            0.000 [kcal/mol]        0.000 [kJ/mol]       0.00000000 [Eh]
    Translational G       -10.140 [kcal/mol]      -42.428 [kJ/mol]      -0.01615980 [Eh]
    Rotational G           -6.362 [kcal/mol]      -26.617 [kJ/mol]      -0.01013795 [Eh]
    Vibrational G          61.586 [kcal/mol]      257.677 [kJ/mol]       0.09814399 [Eh]
  Correction G             45.084 [kcal/mol]      188.632 [kJ/mol]       0.07184624 [Eh]
  Total G, Free enthalpy at  298.15 [K]                               -231.42911531 [Eh]

*** Psi4 exiting successfully. Buy a developer a beer!
