                               Psi4 1.3.2 release

  ==> Input File <==

--------------------------------------------------------------------------
set basis  aug-cc-pVTZ
molecule {
0 1
   O        0.00000        0.00000       -0.06797
   H        0.74903        0.00000        0.53936
   H       -0.74903        0.00000        0.53936
}
energy('CCSD')
frequencies('CCSD')

--------------------------------------------------------------------------

    Molecular point group: c2v
  Charge       = 0
  Multiplicity = 1
  Basis Set: AUG-CC-PVTZ
    Blend: AUG-CC-PVTZ
  @RHF Final Energy:   -76.05974228591141
    Total Energy =                        -76.0597422859114261
      * MP2 total energy                      =  -76.343985400753382
      * CCSD total energy                     =  -76.348504981796026
    Molecular point group: c2v
  Basis Set: AUG-CC-PVTZ
    Blend: AUG-CC-PVTZ
  @RHF Final Energy:   -76.05974228591144
    Total Energy =                        -76.0597422859114403
      * MP2 total energy                      =  -76.343985400961245
      * CCSD total energy                     =  -76.348504982271677
  Basis Set: AUG-CC-PVTZ
    Blend: AUG-CC-PVTZ
  @RHF Final Energy:   -76.05974228591150
    Total Energy =                        -76.0597422859115113
      * MP2 total energy                      =  -76.343985400961230
      * CCSD total energy                     =  -76.348504982068278
  Basis Set: AUG-CC-PVTZ
    Blend: AUG-CC-PVTZ
  @RHF Final Energy:   -76.05959524784933
    Total Energy =                        -76.0595952478493160
      * MP2 total energy                      =  -76.343943828359386
      * CCSD total energy                     =  -76.348448337162409
  Basis Set: AUG-CC-PVTZ
    Blend: AUG-CC-PVTZ
  @RHF Final Energy:   -76.05988236294155
    Total Energy =                        -76.0598823629415506
      * MP2 total energy                      =  -76.344020556369713
      * CCSD total energy                     =  -76.348555114783608
  Basis Set: AUG-CC-PVTZ
    Blend: AUG-CC-PVTZ
  @RHF Final Energy:   -76.05983681873845
    Total Energy =                        -76.0598368187384466
      * MP2 total energy                      =  -76.343989282433327
      * CCSD total energy                     =  -76.348521237156476
  Basis Set: AUG-CC-PVTZ
    Blend: AUG-CC-PVTZ
  @RHF Final Energy:   -76.05963769291269
    Total Energy =                        -76.0596376929126876
      * MP2 total energy                      =  -76.343971791555248
      * CCSD total energy                     =  -76.348478980879420
    Molecular point group: cs
  Charge       = 0
  Multiplicity = 1
  Basis Set: AUG-CC-PVTZ
    Blend: AUG-CC-PVTZ

    Orbital Energies [Eh]
    ---------------------

    Doubly Occupied:

       1Ap   -20.569563     2Ap    -1.351839     3Ap    -0.708933
       4Ap    -0.588658     1App   -0.510540

  @RHF Final Energy:   -76.05973513728142

   => Energetics <=

    Nuclear Repulsion Energy =              9.1334682877742281
    One-Electron Energy =                -122.9273389867953483
    Two-Electron Energy =                  37.7341355617396914
    Total Energy =                        -76.0597351372814217

  Dipole Moment: [D]
     X:     0.0034      Y:     0.0000      Z:     2.0306     Total:     2.0306

      * MP2 total energy                      =  -76.343978247608135
      * CCSD total energy                     =  -76.348497923587800
    Molecular point group: cs

    Geometry (in Bohr), charge = 0, multiplicity = 1:

       Center              X                  Y                   Z
    ------------   -----------------  -----------------  -----------------
         O           -0.000332326610     0.000000000000    -0.128443286339
         H            1.418098691984     0.000000000000     1.021382326257
         H           -1.412824427519     0.000000000000     1.017105836614

  -Total gradient:
     Atom            X                  Y                   Z
    ------   -----------------  -----------------  -----------------
       1       -0.003011109535     0.000000000000    -0.014270509951
       2        0.004497298992     0.000000000000     0.008345542466
       3       -0.001486189457     0.000000000000     0.005924967485

  Vibration                       7                   8                   9
  Freq [cm^-1]                1696.1837           3782.5550           3862.8492
  Irrep                           A1                  A1                  B1
  Reduced mass [u]              1.0815              1.0463              1.0793
  Force const [mDyne/A]         1.8332              8.8200              9.4886

  ==> Thermochemistry Components <==

  Entropy, S
    Electronic S            0.000 [cal/(mol K)]        0.000 [J/(mol K)]       0.00000000 [mEh/K] (multiplicity = 1)
    Translational S        34.608 [cal/(mol K)]      144.801 [J/(mol K)]       0.05515177 [mEh/K] (mol. weight = 18.0106 [u], P = 101325.00 [Pa])
    Rotational S           10.508 [cal/(mol K)]       43.968 [J/(mol K)]       0.01674635 [mEh/K] (symmetry no. = 2)
    Vibrational S           0.005 [cal/(mol K)]        0.021 [J/(mol K)]       0.00000811 [mEh/K]
  Total S                  45.122 [cal/(mol K)]      188.790 [J/(mol K)]       0.07190624 [mEh/K]
  Correction S              0.000 [cal/(mol K)]        0.000 [J/(mol K)]       0.00000000 [mEh/K]

  Constant volume heat capacity, Cv
    Electronic Cv           0.000 [cal/(mol K)]        0.000 [J/(mol K)]       0.00000000 [mEh/K]
    Translational Cv        2.981 [cal/(mol K)]       12.472 [J/(mol K)]       0.00475022 [mEh/K]
    Rotational Cv           2.981 [cal/(mol K)]       12.472 [J/(mol K)]       0.00475022 [mEh/K]
    Vibrational Cv          0.037 [cal/(mol K)]        0.155 [J/(mol K)]       0.00005919 [mEh/K]
  Total Cv                  5.999 [cal/(mol K)]       25.099 [J/(mol K)]       0.00955963 [mEh/K]
  Correction Cv             0.000 [cal/(mol K)]        0.000 [J/(mol K)]       0.00000000 [mEh/K]

  Constant pressure heat capacity, Cp
    Electronic Cp           0.000 [cal/(mol K)]        0.000 [J/(mol K)]       0.00000000 [mEh/K]
    Translational Cp        4.968 [cal/(mol K)]       20.786 [J/(mol K)]       0.00791703 [mEh/K]
    Rotational Cp           2.981 [cal/(mol K)]       12.472 [J/(mol K)]       0.00475022 [mEh/K]
    Vibrational Cp          0.037 [cal/(mol K)]        0.155 [J/(mol K)]       0.00005919 [mEh/K]
  Total Cp                  7.986 [cal/(mol K)]       33.413 [J/(mol K)]       0.01272644 [mEh/K]
  Correction Cp             0.000 [cal/(mol K)]        0.000 [J/(mol K)]       0.00000000 [mEh/K]

  ==> Thermochemistry Energy Analysis <==

  Raw electronic energy, E0
  Total E0, Electronic energy at well bottom at 0 [K]                  -76.34850498 [Eh]

  Zero-point energy, ZPE_vib = Sum_i nu_i / 2
    Electronic ZPE          0.000 [kcal/mol]        0.000 [kJ/mol]       0.00000000 [Eh]
    Translational ZPE       0.000 [kcal/mol]        0.000 [kJ/mol]       0.00000000 [Eh]
    Rotational ZPE          0.000 [kcal/mol]        0.000 [kJ/mol]       0.00000000 [Eh]
    Vibrational ZPE        13.354 [kcal/mol]       55.875 [kJ/mol]       0.02128170 [Eh]        4670.794 [cm^-1]
  Correction ZPE           13.354 [kcal/mol]       55.875 [kJ/mol]       0.02128170 [Eh]        4670.794 [cm^-1]
  Total ZPE, Electronic energy at 0 [K]                                -76.32722328 [Eh]

  Thermal Energy, E (includes ZPE)
    Electronic E            0.000 [kcal/mol]        0.000 [kJ/mol]       0.00000000 [Eh]
    Translational E         0.889 [kcal/mol]        3.718 [kJ/mol]       0.00141628 [Eh]
    Rotational E            0.889 [kcal/mol]        3.718 [kJ/mol]       0.00141628 [Eh]
    Vibrational E          13.356 [kcal/mol]       55.881 [kJ/mol]       0.02128386 [Eh]
  Correction E             15.133 [kcal/mol]       63.318 [kJ/mol]       0.02411641 [Eh]
  Total E, Electronic energy at  298.15 [K]                            -76.32438857 [Eh]

  Enthalpy, H_trans = E_trans + k_B * T
    Electronic H            0.000 [kcal/mol]        0.000 [kJ/mol]       0.00000000 [Eh]
    Translational H         1.481 [kcal/mol]        6.197 [kJ/mol]       0.00236046 [Eh]
    Rotational H            0.889 [kcal/mol]        3.718 [kJ/mol]       0.00141628 [Eh]
    Vibrational H          13.356 [kcal/mol]       55.881 [kJ/mol]       0.02128386 [Eh]
  Correction H             15.726 [kcal/mol]       65.797 [kJ/mol]       0.02506060 [Eh]
  Total H, Enthalpy at  298.15 [K]                                     -76.32344439 [Eh]

  Gibbs free energy, G = H - T * S
    Electronic G            0.000 [kcal/mol]        0.000 [kJ/mol]       0.00000000 [Eh]
    Translational G        -8.837 [kcal/mol]      -36.975 [kJ/mol]      -0.01408304 [Eh]
    Rotational G           -2.244 [kcal/mol]       -9.390 [kJ/mol]      -0.00357665 [Eh]
    Vibrational G          13.354 [kcal/mol]       55.874 [kJ/mol]       0.02128144 [Eh]
  Correction G              2.273 [kcal/mol]        9.509 [kJ/mol]       0.00362175 [Eh]
  Total G, Free enthalpy at  298.15 [K]                                -76.34488323 [Eh]

*** Psi4 exiting successfully. Buy a developer a beer!
