                               Psi4 1.3.2 release

  ==> Input File <==

--------------------------------------------------------------------------
set basis  6-311++g**
molecule {
0 1
   C       -0.61446        0.00000        0.00000
   C        0.61446        0.00000        0.00000
   H       -1.68923        0.00000        0.00000
   H        1.68923        0.00000        0.00000
}
energy('CCSD')
frequencies('CCSD')
--------------------------------------------------------------------------

    Molecular point group: d2h
  Charge       = 0
  Multiplicity = 1
  Basis Set: 6-311++G**
    Blend: 6-311++G**
  @RHF Final Energy:   -76.83793386914419
    Total Energy =                        -76.8379338691441944
      * MP2 total energy                      =  -77.150128486559325
      * CCSD total energy                     =  -77.165676896353943
    Molecular point group: d2h
  Basis Set: 6-311++G**
    Blend: 6-311++G**
  @RHF Final Energy:   -76.83793386914419
    Total Energy =                        -76.8379338691441944
      * MP2 total energy                      =  -77.150128486499185
      * CCSD total energy                     =  -77.165676897706163
  Basis Set: 6-311++G**
    Blend: 6-311++G**
  @RHF Final Energy:   -76.83793386914419
    Total Energy =                        -76.8379338691441944
      * MP2 total energy                      =  -77.150128486499185
      * CCSD total energy                     =  -77.165676896342390
  Basis Set: 6-311++G**
    Blend: 6-311++G**
  @RHF Final Energy:   -76.83776422867038
    Total Energy =                        -76.8377642286703804
      * MP2 total energy                      =  -77.150092014801473
      * CCSD total energy                     =  -77.165609398061051
  @RHF Final Energy:   -76.83809847396530
    Total Energy =                        -76.8380984739653030
      * MP2 total energy                      =  -77.150160199357529
      * CCSD total energy                     =  -77.165739517633781
  @RHF Final Energy:   -76.83782655347092
    Total Energy =                        -76.8378265534709186
      * MP2 total energy                      =  -77.150068692742963
      * CCSD total energy                     =  -77.165624852462187
  @RHF Final Energy:   -76.83803117827280
    Total Energy =                        -76.8380311782728000
      * MP2 total energy                      =  -77.150178392175008
      * CCSD total energy                     =  -77.165719084084031
  @RHF Final Energy:   -76.83793368313651
    Total Energy =                        -76.8379336831365123
      * MP2 total energy                      =  -77.150128414054890
      * CCSD total energy                     =  -77.165676811647131
  @RHF Final Energy:   -76.83793363536293
    Total Energy =                        -76.8379336353629299
      * MP2 total energy                      =  -77.150128365705072
      * CCSD total energy                     =  -77.165676781954673
  @RHF Final Energy:   -76.83793368313674
    Total Energy =                        -76.8379336831367397
      * MP2 total energy                      =  -77.150128414054990
      * CCSD total energy                     =  -77.165676811647245
  Basis Set: 6-311++G**
    Blend: 6-311++G**
  @RHF Final Energy:   -76.83793363536303
    Total Energy =                        -76.8379336353630293
      * MP2 total energy                      =  -77.150128365705228
      * CCSD total energy                     =  -77.165676781954829
  Basis Set: 6-311++G**
    Blend: 6-311++G**
  @RHF Final Energy:   -76.83793344518270
    Total Energy =                        -76.8379334451826992
      * MP2 total energy                      =  -77.150128168638958
      * CCSD total energy                     =  -77.165676582453415
  Basis Set: 6-311++G**
    Blend: 6-311++G**
  @RHF Final Energy:   -76.83793344518267
    Total Energy =                        -76.8379334451826708
      * MP2 total energy                      =  -77.150128168638986
      * CCSD total energy                     =  -77.165676582453443
    Molecular point group: c2v
  Charge       = 0
  Multiplicity = 1
  Basis Set: 6-311++G**
    Blend: 6-311++G**

    Orbital Energies [Eh]
    ---------------------

    Doubly Occupied:

       1A1   -11.254413     2A1   -11.251146     3A1    -1.025179
       4A1    -0.767828     5A1    -0.678492     1B1    -0.405955
       1B2    -0.405955

  @RHF Final Energy:   -76.83792844684599

   => Energetics <=

    Nuclear Repulsion Energy =             24.3232393838559098
    One-Electron Energy =                -150.7443975321666016
    Two-Electron Energy =                  49.5832297014647025
    Total Energy =                        -76.8379284468459929

  Dipole Moment: [D]
     X:     0.0045      Y:     0.0000      Z:     0.0000     Total:     0.0045

      * MP2 total energy                      =  -77.150123126975203
      * CCSD total energy                     =  -77.165671559593278
    Molecular point group: c2v

    Geometry (in Bohr), charge = 0, multiplicity = 1:

       Center              X                  Y                   Z
    ------------   -----------------  -----------------  -----------------
         C           -1.161445204175     0.000000000000     0.000000000000
         C            1.160877025923     0.000000000000     0.000000000000
         H           -3.188799462353     0.000000000000     0.000000000000
         H            3.195564663461     0.000000000000     0.000000000000

  -Total gradient:
     Atom            X                  Y                   Z
    ------   -----------------  -----------------  -----------------
       1       -0.033338070569     0.000000000000     0.000000000000
       2        0.030427109194     0.000000000000     0.000000000000
       3       -0.005228206947     0.000000000000     0.000000000000
       4        0.008139168322     0.000000000000     0.000000000000

  Vibration                       4                   5                   6
  Freq [cm^-1]                 241.4511            241.4511            602.1349
  Irrep                          B2g                 B1g                 B2g
  Reduced mass [u]              2.2522              2.2522              1.5834
  Force const [mDyne/A]         0.0774              0.0774              0.3382

  Vibration                       7                   8                   9
  Freq [cm^-1]                 602.1349            814.5902            814.5902
  Irrep                          B1g                 B2u                 B1u
  Reduced mass [u]              1.5834              1.0848              1.0848
  Force const [mDyne/A]         0.3382              0.4241              0.4241

  Vibration                       10                  11                  12
  Freq [cm^-1]                1919.0287           3358.8420           3448.2039
  Irrep                           Ag                 B3u                  Ag
  Reduced mass [u]              4.0589              1.0848              1.2060
  Force const [mDyne/A]         8.8069              7.2108              8.4485

  ==> Thermochemistry Components <==

  Entropy, S
    Electronic S            0.000 [cal/(mol K)]        0.000 [J/(mol K)]       0.00000000 [mEh/K] (multiplicity = 1)
    Translational S        35.704 [cal/(mol K)]      149.387 [J/(mol K)]       0.05689862 [mEh/K] (mol. weight = 26.0157 [u], P = 101325.00 [Pa])
    Rotational S           10.952 [cal/(mol K)]       45.824 [J/(mol K)]       0.01745345 [mEh/K] (symmetry no. = 2)
    Vibrational S           4.870 [cal/(mol K)]       20.375 [J/(mol K)]       0.00776048 [mEh/K]
  Total S                  51.526 [cal/(mol K)]      215.586 [J/(mol K)]       0.08211254 [mEh/K]
  Correction S              0.000 [cal/(mol K)]        0.000 [J/(mol K)]       0.00000000 [mEh/K]

  Constant volume heat capacity, Cv
    Electronic Cv           0.000 [cal/(mol K)]        0.000 [J/(mol K)]       0.00000000 [mEh/K]
    Translational Cv        2.981 [cal/(mol K)]       12.472 [J/(mol K)]       0.00475022 [mEh/K]
    Rotational Cv           1.987 [cal/(mol K)]        8.314 [J/(mol K)]       0.00316681 [mEh/K]
    Vibrational Cv          6.879 [cal/(mol K)]       28.780 [J/(mol K)]       0.01096162 [mEh/K]
  Total Cv                 11.847 [cal/(mol K)]       49.566 [J/(mol K)]       0.01887865 [mEh/K]
  Correction Cv             0.000 [cal/(mol K)]        0.000 [J/(mol K)]       0.00000000 [mEh/K]

  Constant pressure heat capacity, Cp
    Electronic Cp           0.000 [cal/(mol K)]        0.000 [J/(mol K)]       0.00000000 [mEh/K]
    Translational Cp        4.968 [cal/(mol K)]       20.786 [J/(mol K)]       0.00791703 [mEh/K]
    Rotational Cp           1.987 [cal/(mol K)]        8.314 [J/(mol K)]       0.00316681 [mEh/K]
    Vibrational Cp          6.879 [cal/(mol K)]       28.780 [J/(mol K)]       0.01096162 [mEh/K]
  Total Cp                 13.834 [cal/(mol K)]       57.880 [J/(mol K)]       0.02204546 [mEh/K]
  Correction Cp             0.000 [cal/(mol K)]        0.000 [J/(mol K)]       0.00000000 [mEh/K]

  ==> Thermochemistry Energy Analysis <==

  Raw electronic energy, E0
  Total E0, Electronic energy at well bottom at 0 [K]                  -77.16567690 [Eh]

  Zero-point energy, ZPE_vib = Sum_i nu_i / 2
    Electronic ZPE          0.000 [kcal/mol]        0.000 [kJ/mol]       0.00000000 [Eh]
    Translational ZPE       0.000 [kcal/mol]        0.000 [kJ/mol]       0.00000000 [Eh]
    Rotational ZPE          0.000 [kcal/mol]        0.000 [kJ/mol]       0.00000000 [Eh]
    Vibrational ZPE        17.216 [kcal/mol]       72.030 [kJ/mol]       0.02743467 [Eh]        6021.213 [cm^-1]
  Correction ZPE           17.216 [kcal/mol]       72.030 [kJ/mol]       0.02743467 [Eh]        6021.213 [cm^-1]
  Total ZPE, Electronic energy at 0 [K]                                -77.13824223 [Eh]

  Thermal Energy, E (includes ZPE)
    Electronic E            0.000 [kcal/mol]        0.000 [kJ/mol]       0.00000000 [Eh]
    Translational E         0.889 [kcal/mol]        3.718 [kJ/mol]       0.00141628 [Eh]
    Rotational E            0.592 [kcal/mol]        2.479 [kJ/mol]       0.00094418 [Eh]
    Vibrational E          18.134 [kcal/mol]       75.874 [kJ/mol]       0.02889886 [Eh]
  Correction E             19.616 [kcal/mol]       82.071 [kJ/mol]       0.03125932 [Eh]
  Total E, Electronic energy at  298.15 [K]                            -77.13441758 [Eh]

  Enthalpy, H_trans = E_trans + k_B * T
    Electronic H            0.000 [kcal/mol]        0.000 [kJ/mol]       0.00000000 [Eh]
    Translational H         1.481 [kcal/mol]        6.197 [kJ/mol]       0.00236046 [Eh]
    Rotational H            0.592 [kcal/mol]        2.479 [kJ/mol]       0.00094418 [Eh]
    Vibrational H          18.134 [kcal/mol]       75.874 [kJ/mol]       0.02889886 [Eh]
  Correction H             20.208 [kcal/mol]       84.550 [kJ/mol]       0.03220350 [Eh]
  Total H, Enthalpy at  298.15 [K]                                     -77.13347339 [Eh]

  Gibbs free energy, G = H - T * S
    Electronic G            0.000 [kcal/mol]        0.000 [kJ/mol]       0.00000000 [Eh]
    Translational G        -9.164 [kcal/mol]      -38.342 [kJ/mol]      -0.01460386 [Eh]
    Rotational G           -2.673 [kcal/mol]      -11.183 [kJ/mol]      -0.00425956 [Eh]
    Vibrational G          16.682 [kcal/mol]       69.799 [kJ/mol]       0.02658507 [Eh]
  Correction G              4.845 [kcal/mol]       20.273 [kJ/mol]       0.00772165 [Eh]
  Total G, Free enthalpy at  298.15 [K]                                -77.15795525 [Eh]

*** Psi4 exiting successfully. Buy a developer a beer!
