                               Psi4 1.3.2 release

  ==> Input File <==

--------------------------------------------------------------------------
set basis  aug-cc-pVTZ
molecule {
0 1
   C        0.32153        0.81326        0.00000
   C       -0.86505       -0.12817        0.00000
   C        0.54353       -0.68508        0.00000
   H        0.53795        1.36069       -0.92039
   H        0.53795        1.36069        0.92039
   H       -1.44742       -0.21449        0.92034
   H       -1.44742       -0.21449       -0.92034
   H        0.90937       -1.14629       -0.92037
   H        0.90937       -1.14629        0.92037
}
energy('MP2')
frequencies('MP2')
--------------------------------------------------------------------------

    Molecular point group: cs
  Charge       = 0
  Multiplicity = 1
  Basis Set: AUG-CC-PVTZ
    Blend: AUG-CC-PVTZ
  Basis Set: (AUG-CC-PVTZ AUX)
    Blend: AUG-CC-PVTZ-JKFIT
  @DF-RHF Final Energy:  -117.10009773089266
    Total Energy =                       -117.1000977308926565
  Basis Set: (AUG-CC-PVTZ AUX)
    Blend: AUG-CC-PVTZ-RI
	 Reference Energy          =    -117.1000977308926565 [Eh]
	 Singles Energy            =      -0.0000000000000000 [Eh]
	 Same-Spin Energy          =      -0.1241003955007585 [Eh]
	 Opposite-Spin Energy      =      -0.4551472392110460 [Eh]
	 Correlation Energy        =      -0.5792476347118045 [Eh]
	 Total Energy              =    -117.6793453656044619 [Eh]
	 SCS Total Energy          =    -117.6876412164461669 [Eh]
    Molecular point group: cs
  Basis Set: AUG-CC-PVTZ
    Blend: AUG-CC-PVTZ
  Basis Set: (AUG-CC-PVTZ AUX)
    Blend: AUG-CC-PVTZ-JKFIT
  @DF-RHF Final Energy:  -117.10009773085862
    Total Energy =                       -117.1000977308586215
  Basis Set: (AUG-CC-PVTZ AUX)
  @DF-RHF Final Energy:  -117.10009773085862
    Total Energy =                       -117.1000977308586215
  @DF-RHF Final Energy:  -117.10009991043056
    Total Energy =                       -117.1000999104305578
  @DF-RHF Final Energy:  -117.10009431472318
    Total Energy =                       -117.1000943147231794
  @DF-RHF Final Energy:  -117.10010271848455
    Total Energy =                       -117.1001027184845498
  @DF-RHF Final Energy:  -117.10009101949083
    Total Energy =                       -117.1000910194908329
  @DF-RHF Final Energy:  -117.10009072309582
    Total Energy =                       -117.1000907230958177
  @DF-RHF Final Energy:  -117.10010270619860
    Total Energy =                       -117.1001027061985980
  @DF-RHF Final Energy:  -117.10009818779469
    Total Energy =                       -117.1000981877946856
  @DF-RHF Final Energy:  -117.10009567649460
    Total Energy =                       -117.1000956764946039
  @DF-RHF Final Energy:  -117.10009862518731
    Total Energy =                       -117.1000986251873144
  @DF-RHF Final Energy:  -117.10009435426593
    Total Energy =                       -117.1000943542659343
  @DF-RHF Final Energy:  -117.10009410888826
    Total Energy =                       -117.1000941088882570
  @DF-RHF Final Energy:  -117.10009876917226
    Total Energy =                       -117.1000987691722628
  @DF-RHF Final Energy:  -117.10012516588728
    Total Energy =                       -117.1001251658872775
  @DF-RHF Final Energy:  -117.10006755910632
    Total Energy =                       -117.1000675591063214
  @DF-RHF Final Energy:  -117.10014767911511
    Total Energy =                       -117.1001476791151106
  @DF-RHF Final Energy:  -117.10004469453763
    Total Energy =                       -117.1000446945376297
  @DF-RHF Final Energy:  -117.10000969596936
    Total Energy =                       -117.1000096959693622
  @DF-RHF Final Energy:  -117.10017870279128
    Total Energy =                       -117.1001787027912826
  @DF-RHF Final Energy:  -117.10003710693925
    Total Energy =                       -117.1000371069392543
  @DF-RHF Final Energy:  -117.10015510648294
    Total Energy =                       -117.1001551064829442
  @DF-RHF Final Energy:  -117.10017862740831
    Total Energy =                       -117.1001786274083116
  @DF-RHF Final Energy:  -117.10000977185805
    Total Energy =                       -117.1000097718580548
  @DF-RHF Final Energy:  -117.10000972579893
    Total Energy =                       -117.1000097257989268
  @DF-RHF Final Energy:  -117.10017867375525
    Total Energy =                       -117.1001786737552521
  @DF-RHF Final Energy:  -117.10009570740826
    Total Energy =                       -117.1000957074082578
  @DF-RHF Final Energy:  -117.10009549162032
    Total Energy =                       -117.1000954916203227
  @DF-RHF Final Energy:  -117.10009480529820
    Total Energy =                       -117.1000948052981983
  @DF-RHF Final Energy:  -117.10009684506269
    Total Energy =                       -117.1000968450626942
  @DF-RHF Final Energy:  -117.10009554123202
    Total Energy =                       -117.1000955412320224
  @DF-RHF Final Energy:  -117.10009566828265
    Total Energy =                       -117.1000956682826484
  @DF-RHF Final Energy:  -117.10009541895766
    Total Energy =                       -117.1000954189576646
  @DF-RHF Final Energy:  -117.10009704896672
    Total Energy =                       -117.1000970489667168
    Molecular point group: c1
  Charge       = 0
  Multiplicity = 1
  Basis Set: AUG-CC-PVTZ
    Blend: AUG-CC-PVTZ
  Basis Set: (AUG-CC-PVTZ AUX)
    Blend: AUG-CC-PVTZ-JKFIT

    Orbital Energies [Eh]
    ---------------------

    Doubly Occupied:

       1A    -11.227512     2A    -11.226536     3A    -11.226531
       4A     -1.124705     5A     -0.813985     6A     -0.813979
       7A     -0.662781     8A     -0.621913     9A     -0.510215
      10A     -0.510199    11A     -0.417243    12A     -0.417235

  @DF-RHF Final Energy:  -117.10009514811154

   => Energetics <=

    Nuclear Repulsion Energy =             75.2814718714328848
    One-Electron Energy =                -305.6174655629667996
    Two-Electron Energy =                 113.2358985434223939
    Total Energy =                       -117.1000951481115351

  Dipole Moment: [D]
     X:    -0.0001      Y:    -0.0001      Z:    -0.0007     Total:     0.0007

  Basis Set: (AUG-CC-PVTZ AUX)
    Blend: AUG-CC-PVTZ-RI
    Molecular point group: c1

    Geometry (in Angstrom), charge = 0, multiplicity = 1:

       Center              X                  Y                   Z               Mass
    ------------   -----------------  -----------------  -----------------  -----------------
         C            0.321531939855     0.813261460475     0.000000000000    12.000000000000
         C           -0.865048060145    -0.128168539525     0.000000000000    12.000000000000
         C            0.543531939855    -0.685078539525     0.000000000000    12.000000000000
         H            0.537951939855     1.360691460475    -0.920390000000     1.007825032230
         H            0.537951939855     1.360691460475     0.920390000000     1.007825032230
         H           -1.447418060145    -0.214488539525     0.919737951237     1.007825032230
         H           -1.447418060145    -0.214488539525    -0.920942048763     1.007825032230
         H            0.907830274543    -1.145679013968    -0.919767951237     1.007825032230
         H            0.910913605168    -1.146898065083     0.920972048763     1.007825032230

  Basis Set: AUG-CC-PVTZ
    Blend: AUG-CC-PVTZ
  Basis Set: (AUG-CC-PVTZ AUX)
    Blend: AUG-CC-PVTZ-JKFIT
  Basis Set: (AUG-CC-PVTZ AUX)
    Blend: AUG-CC-PVTZ-JKFIT
	 Reference Energy          =    -117.1000951481115351 [Eh]
	 Singles Energy            =      -0.0000000000000000 [Eh]
	 Same-Spin Energy          =      -0.1241004057332793 [Eh]
	 Opposite-Spin Energy      =      -0.4551473377762368 [Eh]
	 Correlation Energy        =      -0.5792477435095160 [Eh]
	 Total Energy              =    -117.6793428916210473 [Eh]

	 ================> DF-SCS-MP2 Energies <==================
	-----------------------------------------------------------
	 SCS Same-Spin Scale       =       0.3333333333333333 [-]
	 SCS Opposite-Spin Scale   =       1.2000000000000000 [-]
	 SCS Same-Spin Energy      =      -0.0413668019110931 [Eh]
	 SCS Opposite-Spin Energy  =      -0.5461768053314842 [Eh]
	 SCS Correlation Energy    =      -0.5875436072425773 [Eh]
	 SCS Total Energy          =    -117.6876387553541150 [Eh]
	-----------------------------------------------------------

  -Total Gradient:
     Atom            X                  Y                   Z
    ------   -----------------  -----------------  -----------------
       1        0.000431058195     0.001091372061     0.000007772239
       2       -0.001136196893    -0.000165336169     0.000425517602
       3        0.000727640979    -0.000909325867    -0.001188318028
       4        0.002438323370     0.006170478727    -0.009211093695
       5        0.002443332430     0.006183655110     0.009208184181
       6       -0.006411738461    -0.000974183696     0.008930280603
       7       -0.006745068735    -0.000980552188    -0.009469079528
       8        0.003773131579    -0.004864133742    -0.008555195752
       9        0.004479517535    -0.005551974238     0.009851932380

  Vibration                       7                   8                   9
  Freq [cm^-1]                 809.3007            809.3162            872.0059
  Irrep                          App                 App                  Ap
  Reduced mass [u]              1.0238              1.0238              4.5884
  Force const [mDyne/A]         0.3951              0.3951              2.0557

  Vibration                       10                  11                  12
  Freq [cm^-1]                 872.0463            919.5902           1098.2665
  Irrep                           Ap                 App                  Ap
  Reduced mass [u]              4.5884              1.0439              1.1903
  Force const [mDyne/A]         2.0559              0.5201              0.8459

  Vibration                       13                  14                  15
  Freq [cm^-1]                1098.2836           1122.6930           1188.1758
  Irrep                           Ap                  Ap                 App
  Reduced mass [u]              1.1903              1.4254              1.0078
  Force const [mDyne/A]         0.8459              1.0586              0.8383

  Vibration                       16                  17                  18
  Freq [cm^-1]                1195.0686           1238.4274           1238.4295
  Irrep                           Ap                 App                 App
  Reduced mass [u]              2.9570              1.4437              1.4437
  Force const [mDyne/A]         2.4882              1.3046              1.3046

  Vibration                       19                  20                  21
  Freq [cm^-1]                1505.8766           1505.8957           1546.4328
  Irrep                           Ap                  Ap                  Ap
  Reduced mass [u]              1.0887              1.0887              1.2679
  Force const [mDyne/A]         1.4546              1.4546              1.7864

  Vibration                       22                  23                  24
  Freq [cm^-1]                3047.3748           3047.3991           3059.5057
  Irrep                           Ap                  Ap                  Ap
  Reduced mass [u]              1.0496              1.0496              1.0628
  Force const [mDyne/A]         5.7429              5.7430              5.8616

  Vibration                       25                  26                  27
  Freq [cm^-1]                3110.2534           3110.2650           3132.2980
  Irrep                          App                 App                 App
  Reduced mass [u]              1.1214              1.1215              1.1163
  Force const [mDyne/A]         6.3918              6.3918              6.4532

  ==> Thermochemistry Components <==

  Entropy, S
    Electronic S            0.000 [cal/(mol K)]        0.000 [J/(mol K)]       0.00000000 [mEh/K] (multiplicity = 1)
    Translational S        37.135 [cal/(mol K)]      155.375 [J/(mol K)]       0.05917914 [mEh/K] (mol. weight = 42.0470 [u], P = 101325.00 [Pa])
    Rotational S           21.699 [cal/(mol K)]       90.789 [J/(mol K)]       0.03457982 [mEh/K] (symmetry no. = 1)
    Vibrational S           1.212 [cal/(mol K)]        5.072 [J/(mol K)]       0.00193176 [mEh/K]
  Total S                  60.047 [cal/(mol K)]      251.236 [J/(mol K)]       0.09569072 [mEh/K]
  Correction S              0.000 [cal/(mol K)]        0.000 [J/(mol K)]       0.00000000 [mEh/K]

  Constant volume heat capacity, Cv
    Electronic Cv           0.000 [cal/(mol K)]        0.000 [J/(mol K)]       0.00000000 [mEh/K]
    Translational Cv        2.981 [cal/(mol K)]       12.472 [J/(mol K)]       0.00475022 [mEh/K]
    Rotational Cv           2.981 [cal/(mol K)]       12.472 [J/(mol K)]       0.00475022 [mEh/K]
    Vibrational Cv          4.642 [cal/(mol K)]       19.422 [J/(mol K)]       0.00739726 [mEh/K]
  Total Cv                 10.603 [cal/(mol K)]       44.365 [J/(mol K)]       0.01689769 [mEh/K]
  Correction Cv             0.000 [cal/(mol K)]        0.000 [J/(mol K)]       0.00000000 [mEh/K]

  Constant pressure heat capacity, Cp
    Electronic Cp           0.000 [cal/(mol K)]        0.000 [J/(mol K)]       0.00000000 [mEh/K]
    Translational Cp        4.968 [cal/(mol K)]       20.786 [J/(mol K)]       0.00791703 [mEh/K]
    Rotational Cp           2.981 [cal/(mol K)]       12.472 [J/(mol K)]       0.00475022 [mEh/K]
    Vibrational Cp          4.642 [cal/(mol K)]       19.422 [J/(mol K)]       0.00739726 [mEh/K]
  Total Cp                 12.591 [cal/(mol K)]       52.679 [J/(mol K)]       0.02006451 [mEh/K]
  Correction Cp             0.000 [cal/(mol K)]        0.000 [J/(mol K)]       0.00000000 [mEh/K]

  ==> Thermochemistry Energy Analysis <==

  Raw electronic energy, E0
  Total E0, Electronic energy at well bottom at 0 [K]                 -117.67934536 [Eh]

  Zero-point energy, ZPE_vib = Sum_i nu_i / 2
    Electronic ZPE          0.000 [kcal/mol]        0.000 [kJ/mol]       0.00000000 [Eh]
    Translational ZPE       0.000 [kcal/mol]        0.000 [kJ/mol]       0.00000000 [Eh]
    Rotational ZPE          0.000 [kcal/mol]        0.000 [kJ/mol]       0.00000000 [Eh]
    Vibrational ZPE        50.788 [kcal/mol]      212.498 [kJ/mol]       0.08093624 [Eh]       17763.452 [cm^-1]
  Correction ZPE           50.788 [kcal/mol]      212.498 [kJ/mol]       0.08093624 [Eh]       17763.452 [cm^-1]
  Total ZPE, Electronic energy at 0 [K]                               -117.59840912 [Eh]

  Thermal Energy, E (includes ZPE)
    Electronic E            0.000 [kcal/mol]        0.000 [kJ/mol]       0.00000000 [Eh]
    Translational E         0.889 [kcal/mol]        3.718 [kJ/mol]       0.00141628 [Eh]
    Rotational E            0.889 [kcal/mol]        3.718 [kJ/mol]       0.00141628 [Eh]
    Vibrational E          51.084 [kcal/mol]      213.737 [kJ/mol]       0.08140794 [Eh]
  Correction E             52.862 [kcal/mol]      221.173 [kJ/mol]       0.08424049 [Eh]
  Total E, Electronic energy at  298.15 [K]                           -117.59510487 [Eh]

  Enthalpy, H_trans = E_trans + k_B * T
    Electronic H            0.000 [kcal/mol]        0.000 [kJ/mol]       0.00000000 [Eh]
    Translational H         1.481 [kcal/mol]        6.197 [kJ/mol]       0.00236046 [Eh]
    Rotational H            0.889 [kcal/mol]        3.718 [kJ/mol]       0.00141628 [Eh]
    Vibrational H          51.084 [kcal/mol]      213.737 [kJ/mol]       0.08140794 [Eh]
  Correction H             53.454 [kcal/mol]      223.652 [kJ/mol]       0.08518467 [Eh]
  Total H, Enthalpy at  298.15 [K]                                    -117.59416069 [Eh]

  Gibbs free energy, G = H - T * S
    Electronic G            0.000 [kcal/mol]        0.000 [kJ/mol]       0.00000000 [Eh]
    Translational G        -9.591 [kcal/mol]      -40.128 [kJ/mol]      -0.01528380 [Eh]
    Rotational G           -5.581 [kcal/mol]      -23.350 [kJ/mol]      -0.00889370 [Eh]
    Vibrational G          50.723 [kcal/mol]      212.224 [kJ/mol]       0.08083198 [Eh]
  Correction G             35.551 [kcal/mol]      148.746 [kJ/mol]       0.05665449 [Eh]
  Total G, Free enthalpy at  298.15 [K]                               -117.62269087 [Eh]

*** Psi4 exiting successfully. Buy a developer a beer!
