                               Psi4 1.3.2 release

  ==> Input File <==

--------------------------------------------------------------------------
set basis  6-311++G**
molecule {
0 1
   C        0.32153        0.81326        0.00000
   C       -0.86505       -0.12817        0.00000
   C        0.54353       -0.68508        0.00000
   H        0.53795        1.36069       -0.92039
   H        0.53795        1.36069        0.92039
   H       -1.44742       -0.21449        0.92034
   H       -1.44742       -0.21449       -0.92034
   H        0.90937       -1.14629       -0.92037
   H        0.90937       -1.14629        0.92037
}
energy('m06-2x')
frequencies('m06-2x')
--------------------------------------------------------------------------

    Molecular point group: cs
  Charge       = 0
  Multiplicity = 1
  Basis Set: 6-311++G**
    Blend: 6-311++G**
  Basis Set: (6-311++G** AUX)
    Blend: AUG-CC-PVTZ-JKFIT
  @DF-RKS Final Energy:  -117.86481801124202
    Total Energy =                       -117.8648180112420079
    Molecular point group: cs
  Basis Set: 6-311++G**
    Blend: 6-311++G**
  Basis Set: (6-311++G** AUX)
    Blend: AUG-CC-PVTZ-JKFIT
  @DF-RKS Final Energy:  -117.86481801138666
    Total Energy =                       -117.8648180113866601
  Basis Set: 6-311++G**
    Blend: 6-311++G**
  Basis Set: (6-311++G** AUX)
    Blend: AUG-CC-PVTZ-JKFIT
  Basis Set: 6-311++G**
    Blend: 6-311++G**
  Basis Set: (6-311++G** AUX)
    Blend: AUG-CC-PVTZ-JKFIT
  @DF-RKS Final Energy:  -117.86481801138548
    Total Energy =                       -117.8648180113854806
  Basis Set: 6-311++G**
  @DF-RKS Final Energy:  -117.86483051227252
    Total Energy =                       -117.8648305122725191
  @DF-RKS Final Energy:  -117.86483083942724
    Total Energy =                       -117.8648308394272419
  @DF-RKS Final Energy:  -117.86482180939561
    Total Energy =                       -117.8648218093956075
  @DF-RKS Final Energy:  -117.86481232547224
    Total Energy =                       -117.8648123254722435
  @DF-RKS Final Energy:  -117.86481265020272
    Total Energy =                       -117.8648126502027225
  @DF-RKS Final Energy:  -117.86482263596034
    Total Energy =                       -117.8648226359603370
  @DF-RKS Final Energy:  -117.86482736790722
    Total Energy =                       -117.8648273679072247
  @DF-RKS Final Energy:  -117.86483280187218
    Total Energy =                       -117.8648328018721827
  @DF-RKS Final Energy:  -117.86482885650450
    Total Energy =                       -117.8648288565045021
  @DF-RKS Final Energy:  -117.86481791124513
    Total Energy =                       -117.8648179112451260
  @DF-RKS Final Energy:  -117.86481849075744
    Total Energy =                       -117.8648184907574432
  @DF-RKS Final Energy:  -117.86481827875238
    Total Energy =                       -117.8648182787523808
  @DF-RKS Final Energy:  -117.86484536938269
    Total Energy =                       -117.8648453693826923
  @DF-RKS Final Energy:  -117.86481488745049
    Total Energy =                       -117.8648148874504926
  @DF-RKS Final Energy:  -117.86484776812941
    Total Energy =                       -117.8648477681294082
  @DF-RKS Final Energy:  -117.86478670810449
    Total Energy =                       -117.8647867081044893
  @DF-RKS Final Energy:  -117.86477138147870
    Total Energy =                       -117.8647713814787039
  @DF-RKS Final Energy:  -117.86485778359338
    Total Energy =                       -117.8648577835933793
  @DF-RKS Final Energy:  -117.86480151940363
    Total Energy =                       -117.8648015194036276
  @DF-RKS Final Energy:  -117.86486989889423
    Total Energy =                       -117.8648698988942272
  @DF-RKS Final Energy:  -117.86485776237548
    Total Energy =                       -117.8648577623754790
  @DF-RKS Final Energy:  -117.86477139986866
    Total Energy =                       -117.8647713998686584
  @DF-RKS Final Energy:  -117.86477151654523
    Total Energy =                       -117.8647715165452183
  @DF-RKS Final Energy:  -117.86485764611611
    Total Energy =                       -117.8648576461161070
  @DF-RKS Final Energy:  -117.86481612941354
    Total Energy =                       -117.8648161294135548
  @DF-RKS Final Energy:  -117.86481587568346
    Total Energy =                       -117.8648158756834619
  @DF-RKS Final Energy:  -117.86481512608566
    Total Energy =                       -117.8648151260856594
  @DF-RKS Final Energy:  -117.86481735222881
    Total Energy =                       -117.8648173522288118
  @DF-RKS Final Energy:  -117.86481578574154
    Total Energy =                       -117.8648157857415413
  @DF-RKS Final Energy:  -117.86481623114847
    Total Energy =                       -117.8648162311484668
  @DF-RKS Final Energy:  -117.86481575181678
    Total Energy =                       -117.8648157518167778
  Basis Set: (6-311++G** AUX)
    Blend: AUG-CC-PVTZ-JKFIT
  Basis Set: 6-311++G**
    Blend: 6-311++G**
  Basis Set: (6-311++G** AUX)
    Blend: AUG-CC-PVTZ-JKFIT
  @DF-RKS Final Energy:  -117.86481740794351
    Total Energy =                       -117.8648174079435051
  Basis Set: 6-311++G**
    Blend: 6-311++G**
  Basis Set: (6-311++G** AUX)
    Blend: AUG-CC-PVTZ-JKFIT
    Molecular point group: c1
  Charge       = 0
  Multiplicity = 1
  Basis Set: 6-311++G**
    Blend: 6-311++G**
  Basis Set: (6-311++G** AUX)
    Blend: AUG-CC-PVTZ-JKFIT

    Orbital Energies [Eh]
    ---------------------

    Doubly Occupied:

       1A    -10.539153     2A    -10.538554     3A    -10.538548
       4A     -0.944601     5A     -0.678503     6A     -0.678493
       7A     -0.565877     8A     -0.528771     9A     -0.424644
      10A     -0.424624    11A     -0.350473    12A     -0.350443

  @DF-RKS Final Energy:  -117.86481533986395

   => Energetics <=

    Nuclear Repulsion Energy =             75.2814718714328848
    One-Electron Energy =                -305.8497579749575266
    Two-Electron Energy =                 121.6145754810613937
    DFT Exchange-Correlation Energy =      -8.9111047174006970
    Empirical Dispersion Energy =           0.0000000000000000
    VV10 Nonlocal Energy =                  0.0000000000000000
    Total Energy =                       -117.8648153398639522

  Dipole Moment: [D]
     X:     0.0002      Y:    -0.0002      Z:    -0.0005     Total:     0.0006

    Molecular point group: c1

    Geometry (in Angstrom), charge = 0, multiplicity = 1:

       Center              X                  Y                   Z               Mass
    ------------   -----------------  -----------------  -----------------  -----------------
         C            0.321531939855     0.813261460475     0.000000000000    12.000000000000
         C           -0.865048060145    -0.128168539525     0.000000000000    12.000000000000
         C            0.543531939855    -0.685078539525     0.000000000000    12.000000000000
         H            0.537951939855     1.360691460475    -0.920390000000     1.007825032230
         H            0.537951939855     1.360691460475     0.920390000000     1.007825032230
         H           -1.447418060145    -0.214488539525     0.919737951237     1.007825032230
         H           -1.447418060145    -0.214488539525    -0.920942048763     1.007825032230
         H            0.907830274543    -1.145679013968    -0.919767951237     1.007825032230
         H            0.910913605168    -1.146898065083     0.920972048763     1.007825032230

  Basis Set: 6-311++G**
    Blend: 6-311++G**
  Basis Set: (6-311++G** AUX)
    Blend: AUG-CC-PVTZ-JKFIT

  -Total Gradient:
     Atom            X                  Y                   Z
    ------   -----------------  -----------------  -----------------
       1        0.001159253365     0.002922009762     0.000006140810
       2       -0.003069702181    -0.000417994632     0.000439598180
       3        0.001981511770    -0.002464069216    -0.001224674532
       4        0.001475257329     0.003708342753    -0.006136999234
       5        0.001478437888     0.003721432869     0.006134180380
       6       -0.003780368162    -0.000567433711     0.005847409677
       7       -0.004123411850    -0.000575593555    -0.006399922415
       8        0.002138507099    -0.002773938330    -0.005447423362
       9        0.002854499218    -0.003480262929     0.006780938966

  Vibration                       7                   8                   9
  Freq [cm^-1]                 790.7752            795.7525            890.0700
  Irrep                          App                 App                  Ap
  Reduced mass [u]              1.0219              1.0225              3.4152
  Force const [mDyne/A]         0.3765              0.3815              1.5941

  Vibration                       10                  11                  12
  Freq [cm^-1]                 898.4979            899.0936           1068.7278
  Irrep                           Ap                 App                  Ap
  Reduced mass [u]              4.2006              1.0440              1.3073
  Force const [mDyne/A]         1.9980              0.4973              0.8797

  Vibration                       13                  14                  15
  Freq [cm^-1]                1072.3683           1117.8513           1173.0227
  Irrep                           Ap                  Ap                 App
  Reduced mass [u]              1.2757              1.3533              1.0084
  Force const [mDyne/A]         0.8643              0.9963              0.8175

  Vibration                       16                  17                  18
  Freq [cm^-1]                1205.3520           1222.5960           1223.3101
  Irrep                           Ap                 App                 App
  Reduced mass [u]              2.6442              1.4460              1.4481
  Force const [mDyne/A]         2.2634              1.2734              1.2768

  Vibration                       19                  20                  21
  Freq [cm^-1]                1481.2311           1488.1837           1537.5156
  Irrep                           Ap                  Ap                  Ap
  Reduced mass [u]              1.0922              1.0942              1.3195
  Force const [mDyne/A]         1.4119              1.4278              1.8378

  Vibration                       22                  23                  24
  Freq [cm^-1]                3069.9122           3073.3374           3077.7080
  Irrep                           Ap                  Ap                  Ap
  Reduced mass [u]              1.0501              1.0510              1.0638
  Force const [mDyne/A]         5.8307              5.8490              5.9369

  Vibration                       25                  26                  27
  Freq [cm^-1]                3150.5551           3150.6741           3169.0561
  Irrep                          App                 App                 App
  Reduced mass [u]              1.1210              1.1210              1.1161
  Force const [mDyne/A]         6.5559              6.5563              6.6043

  ==> Thermochemistry Components <==

  Entropy, S
    Electronic S            0.000 [cal/(mol K)]        0.000 [J/(mol K)]       0.00000000 [mEh/K] (multiplicity = 1)
    Translational S        37.135 [cal/(mol K)]      155.375 [J/(mol K)]       0.05917914 [mEh/K] (mol. weight = 42.0470 [u], P = 101325.00 [Pa])
    Rotational S           21.699 [cal/(mol K)]       90.789 [J/(mol K)]       0.03457982 [mEh/K] (symmetry no. = 1)
    Vibrational S           1.247 [cal/(mol K)]        5.218 [J/(mol K)]       0.00198759 [mEh/K]
  Total S                  60.082 [cal/(mol K)]      251.383 [J/(mol K)]       0.09574655 [mEh/K]
  Correction S              0.000 [cal/(mol K)]        0.000 [J/(mol K)]       0.00000000 [mEh/K]

  Constant volume heat capacity, Cv
    Electronic Cv           0.000 [cal/(mol K)]        0.000 [J/(mol K)]       0.00000000 [mEh/K]
    Translational Cv        2.981 [cal/(mol K)]       12.472 [J/(mol K)]       0.00475022 [mEh/K]
    Rotational Cv           2.981 [cal/(mol K)]       12.472 [J/(mol K)]       0.00475022 [mEh/K]
    Vibrational Cv          4.748 [cal/(mol K)]       19.866 [J/(mol K)]       0.00756654 [mEh/K]
  Total Cv                 10.710 [cal/(mol K)]       44.809 [J/(mol K)]       0.01706697 [mEh/K]
  Correction Cv             0.000 [cal/(mol K)]        0.000 [J/(mol K)]       0.00000000 [mEh/K]

  Constant pressure heat capacity, Cp
    Electronic Cp           0.000 [cal/(mol K)]        0.000 [J/(mol K)]       0.00000000 [mEh/K]
    Translational Cp        4.968 [cal/(mol K)]       20.786 [J/(mol K)]       0.00791703 [mEh/K]
    Rotational Cp           2.981 [cal/(mol K)]       12.472 [J/(mol K)]       0.00475022 [mEh/K]
    Vibrational Cp          4.748 [cal/(mol K)]       19.866 [J/(mol K)]       0.00756654 [mEh/K]
  Total Cp                 12.697 [cal/(mol K)]       53.124 [J/(mol K)]       0.02023378 [mEh/K]
  Correction Cp             0.000 [cal/(mol K)]        0.000 [J/(mol K)]       0.00000000 [mEh/K]

  ==> Thermochemistry Energy Analysis <==

  Raw electronic energy, E0
  Total E0, Electronic energy at well bottom at 0 [K]                 -117.86481801 [Eh]

  Zero-point energy, ZPE_vib = Sum_i nu_i / 2
    Electronic ZPE          0.000 [kcal/mol]        0.000 [kJ/mol]       0.00000000 [Eh]
    Translational ZPE       0.000 [kcal/mol]        0.000 [kJ/mol]       0.00000000 [Eh]
    Rotational ZPE          0.000 [kcal/mol]        0.000 [kJ/mol]       0.00000000 [Eh]
    Vibrational ZPE        50.829 [kcal/mol]      212.670 [kJ/mol]       0.08100160 [Eh]       17777.795 [cm^-1]
  Correction ZPE           50.829 [kcal/mol]      212.670 [kJ/mol]       0.08100160 [Eh]       17777.795 [cm^-1]
  Total ZPE, Electronic energy at 0 [K]                               -117.78381642 [Eh]

  Thermal Energy, E (includes ZPE)
    Electronic E            0.000 [kcal/mol]        0.000 [kJ/mol]       0.00000000 [Eh]
    Translational E         0.889 [kcal/mol]        3.718 [kJ/mol]       0.00141628 [Eh]
    Rotational E            0.889 [kcal/mol]        3.718 [kJ/mol]       0.00141628 [Eh]
    Vibrational E          51.134 [kcal/mol]      213.943 [kJ/mol]       0.08148644 [Eh]
  Correction E             52.911 [kcal/mol]      221.379 [kJ/mol]       0.08431899 [Eh]
  Total E, Electronic energy at  298.15 [K]                           -117.78049902 [Eh]

  Enthalpy, H_trans = E_trans + k_B * T
    Electronic H            0.000 [kcal/mol]        0.000 [kJ/mol]       0.00000000 [Eh]
    Translational H         1.481 [kcal/mol]        6.197 [kJ/mol]       0.00236046 [Eh]
    Rotational H            0.889 [kcal/mol]        3.718 [kJ/mol]       0.00141628 [Eh]
    Vibrational H          51.134 [kcal/mol]      213.943 [kJ/mol]       0.08148644 [Eh]
  Correction H             53.503 [kcal/mol]      223.858 [kJ/mol]       0.08526318 [Eh]
  Total H, Enthalpy at  298.15 [K]                                    -117.77955483 [Eh]

  Gibbs free energy, G = H - T * S
    Electronic G            0.000 [kcal/mol]        0.000 [kJ/mol]       0.00000000 [Eh]
    Translational G        -9.591 [kcal/mol]      -40.128 [kJ/mol]      -0.01528380 [Eh]
    Rotational G           -5.581 [kcal/mol]      -23.350 [kJ/mol]      -0.00889370 [Eh]
    Vibrational G          50.762 [kcal/mol]      212.387 [kJ/mol]       0.08089384 [Eh]
  Correction G             35.590 [kcal/mol]      148.909 [kJ/mol]       0.05671634 [Eh]
  Total G, Free enthalpy at  298.15 [K]                               -117.80810167 [Eh]

*** Psi4 exiting successfully. Buy a developer a beer!
