                               Psi4 1.3.2 release

  ==> Input File <==

--------------------------------------------------------------------------
set basis  6-31+G*
molecule {
0 1
   C        0.32153        0.81326        0.00000
   C       -0.86505       -0.12817        0.00000
   C        0.54353       -0.68508        0.00000
   H        0.53795        1.36069       -0.92039
   H        0.53795        1.36069        0.92039
   H       -1.44742       -0.21449        0.92034
   H       -1.44742       -0.21449       -0.92034
   H        0.90937       -1.14629       -0.92037
   H        0.90937       -1.14629        0.92037
}
energy('CCSD')
frequencies('CCSD')
--------------------------------------------------------------------------

    Molecular point group: cs
  Charge       = 0
  Multiplicity = 1
  Basis Set: 6-31+G*
    Blend: 6-31+G*
  @RHF Final Energy:  -117.05931857431383
    Total Energy =                       -117.0593185743138349
      * MP2 total energy                      = -117.469157082688341
      * CCSD total energy                     = -117.503514484910497
    Molecular point group: cs
  Basis Set: 6-31+G*
    Blend: 6-31+G*
  @RHF Final Energy:  -117.05931857431359
    Total Energy =                       -117.0593185743135933
      * MP2 total energy                      = -117.469157081130788
      * CCSD total energy                     = -117.503514483517563
  Basis Set: 6-31+G*
    Blend: 6-31+G*
  @RHF Final Energy:  -117.05931857431376
    Total Energy =                       -117.0593185743137639
      * MP2 total energy                      = -117.469157081130675
      * CCSD total energy                     = -117.503514483069281
  Basis Set: 6-31+G*
    Blend: 6-31+G*
  @RHF Final Energy:  -117.05932053307470
    Total Energy =                       -117.0593205330746969
      * MP2 total energy                      = -117.469159277559072
      * CCSD total energy                     = -117.503516680274132
  @RHF Final Energy:  -117.05931534209631
    Total Energy =                       -117.0593153420963120
      * MP2 total energy                      = -117.469153746122942
      * CCSD total energy                     = -117.503511139429875
  @RHF Final Energy:  -117.05932310640065
    Total Energy =                       -117.0593231064006545
      * MP2 total energy                      = -117.469162021475967
      * CCSD total energy                     = -117.503519432128556
  @RHF Final Energy:  -117.05931225188210
    Total Energy =                       -117.0593122518821048
      * MP2 total energy                      = -117.469150454299509
      * CCSD total energy                     = -117.503507844297346
  @RHF Final Energy:  -117.05931196559516
    Total Energy =                       -117.0593119655951568
      * MP2 total energy                      = -117.469150156427801
      * CCSD total energy                     = -117.503507548645359
  @RHF Final Energy:  -117.05932307257255
    Total Energy =                       -117.0593230725725533
      * MP2 total energy                      = -117.469162009522933
      * CCSD total energy                     = -117.503519424609124
  @RHF Final Energy:  -117.05931892614117
    Total Energy =                       -117.0593189261411737
      * MP2 total energy                      = -117.469157612524839
      * CCSD total energy                     = -117.503515018272196
  @RHF Final Energy:  -117.05939101325477
    Total Energy =                       -117.0593910132547677
      * MP2 total energy                      = -117.469187229180690
      * CCSD total energy                     = -117.503534861675334
  @RHF Final Energy:  -117.05931648305244
    Total Energy =                       -117.0593164830524415
      * MP2 total energy                      = -117.469155073162085
      * CCSD total energy                     = -117.503512505515374
  @RHF Final Energy:  -117.05931625789370
    Total Energy =                       -117.0593162578936983
      * MP2 total energy                      = -117.469154841049075
      * CCSD total energy                     = -117.503512277017265
  @RHF Final Energy:  -117.05931554157229
    Total Energy =                       -117.0593155415722890
      * MP2 total energy                      = -117.469154102634121
      * CCSD total energy                     = -117.503511550099901
  @RHF Final Energy:  -117.05931766848261
    Total Energy =                       -117.0593176684826062
      * MP2 total energy                      = -117.469156247075517
      * CCSD total energy                     = -117.503513664493028
  @RHF Final Energy:  -117.05931630754719
    Total Energy =                       -117.0593163075471921
      * MP2 total energy                      = -117.469154860431985
      * CCSD total energy                     = -117.503512288178413
  Basis Set: 6-31+G*
    Blend: 6-31+G*
  @RHF Final Energy:  -117.05931643786082
    Total Energy =                       -117.0593164378608151
      * MP2 total energy                      = -117.469154988913033
      * CCSD total energy                     = -117.503512420594035
  Basis Set: 6-31+G*
    Blend: 6-31+G*
  @RHF Final Energy:  -117.05931617969560
    Total Energy =                       -117.0593161796955997
      * MP2 total energy                      = -117.469154728401094
      * CCSD total energy                     = -117.503512157651954
  Basis Set: 6-31+G*
    Blend: 6-31+G*
  @RHF Final Energy:  -117.05931788321635
    Total Energy =                       -117.0593178832163517
      * MP2 total energy                      = -117.469156473052720
      * CCSD total energy                     = -117.503513887624734
    Molecular point group: c1
  Charge       = 0
  Multiplicity = 1
  Basis Set: 6-31+G*
    Blend: 6-31+G*

    Orbital Energies [Eh]
    ---------------------

    Doubly Occupied:

       1A    -11.230189     2A    -11.229239     3A    -11.229234
       4A     -1.127188     5A     -0.815255     6A     -0.815249
       7A     -0.664527     8A     -0.623530     9A     -0.511976
      10A     -0.511960    11A     -0.417259    12A     -0.417251

  @RHF Final Energy:  -117.05931589729987

   => Energetics <=

    Nuclear Repulsion Energy =             75.2814718714328848
    One-Electron Energy =                -305.4958599843024558
    Two-Electron Energy =                 113.1550722155697173
    Total Energy =                       -117.0593158972998680

  Dipole Moment: [D]
     X:    -0.0001      Y:    -0.0001      Z:    -0.0007     Total:     0.0007

      * MP2 total energy                      = -117.469154445711737
      * CCSD total energy                     = -117.503511879288482
    Molecular point group: c1

    Geometry (in Bohr), charge = 0, multiplicity = 1:

       Center              X                  Y                   Z
    ------------   -----------------  -----------------  -----------------
         C            0.607607306914     1.536841428687     0.000000000000
         C           -1.634703919032    -0.242203437603     0.000000000000
         C            1.027126506766    -1.294610814132     0.000000000000
         H            1.016581834986     2.571334201546    -1.739285028610
         H            1.016581834986     2.571334201546     1.739285028610
         H           -2.735223722715    -0.405324596752     1.738052835028
         H           -2.735223722715    -0.405324596752    -1.740328249580
         H            1.715550587285    -2.165019564084    -1.738109526812
         H            1.721377237722    -2.167323236824     1.740384941364

  -Total gradient:
     Atom            X                  Y                   Z
    ------   -----------------  -----------------  -----------------
       1        0.001382605107     0.003498809998     0.000004233805
       2       -0.003696422408    -0.000544563858     0.000446690979
       3        0.002336639505    -0.002937426175    -0.001256382241
       4        0.000459424861     0.001165735636    -0.003402825094
       5        0.000464318395     0.001177651866     0.003400444454
       6       -0.001075657419    -0.000185162342     0.003107303623
       7       -0.001432864407    -0.000191966522    -0.003675876505
       8        0.000411462555    -0.000626174799    -0.002707119469
       9        0.001150493811    -0.001356903804     0.004083530448

  Vibration                       7                   8                   9
  Freq [cm^-1]                 797.6205            797.6364            899.6899
  Irrep                          App                 App                  Ap
  Reduced mass [u]              1.0213              1.0213              3.7974
  Force const [mDyne/A]         0.3828              0.3828              1.8110

  Vibration                       10                  11                  12
  Freq [cm^-1]                 899.7258            902.5226           1118.5574
  Irrep                           Ap                 App                  Ap
  Reduced mass [u]              3.7975              1.0442              1.2540
  Force const [mDyne/A]         1.8112              0.5011              0.9244

  Vibration                       13                  14                  15
  Freq [cm^-1]                1118.5683           1131.9896           1193.9156
  Irrep                           Ap                  Ap                 App
  Reduced mass [u]              1.2541              1.4254              1.0078
  Force const [mDyne/A]         0.9245              1.0762              0.8464

  Vibration                       16                  17                  18
  Freq [cm^-1]                1228.5478           1250.9443           1250.9454
  Irrep                           Ap                 App                 App
  Reduced mass [u]              2.7563              1.4512              1.4512
  Force const [mDyne/A]         2.4511              1.3380              1.3380

  Vibration                       19                  20                  21
  Freq [cm^-1]                1515.6922           1515.7123           1570.2692
  Irrep                           Ap                  Ap                  Ap
  Reduced mass [u]              1.0910              1.0910              1.3061
  Force const [mDyne/A]         1.4767              1.4768              1.8975

  Vibration                       22                  23                  24
  Freq [cm^-1]                3119.3397           3119.3591           3130.4802
  Irrep                           Ap                  Ap                  Ap
  Reduced mass [u]              1.0504              1.0504              1.0645
  Force const [mDyne/A]         6.0220              6.0221              6.1466

  Vibration                       25                  26                  27
  Freq [cm^-1]                3198.2538           3198.2635           3217.6610
  Irrep                          App                 App                 App
  Reduced mass [u]              1.1199              1.1199              1.1160
  Force const [mDyne/A]         6.7493              6.7493              6.8075

  ==> Thermochemistry Components <==

  Entropy, S
    Electronic S            0.000 [cal/(mol K)]        0.000 [J/(mol K)]       0.00000000 [mEh/K] (multiplicity = 1)
    Translational S        37.135 [cal/(mol K)]      155.375 [J/(mol K)]       0.05917914 [mEh/K] (mol. weight = 42.0470 [u], P = 101325.00 [Pa])
    Rotational S           21.699 [cal/(mol K)]       90.789 [J/(mol K)]       0.03457982 [mEh/K] (symmetry no. = 1)
    Vibrational S           1.184 [cal/(mol K)]        4.952 [J/(mol K)]       0.00188605 [mEh/K]
  Total S                  60.018 [cal/(mol K)]      251.116 [J/(mol K)]       0.09564501 [mEh/K]
  Correction S              0.000 [cal/(mol K)]        0.000 [J/(mol K)]       0.00000000 [mEh/K]

  Constant volume heat capacity, Cv
    Electronic Cv           0.000 [cal/(mol K)]        0.000 [J/(mol K)]       0.00000000 [mEh/K]
    Translational Cv        2.981 [cal/(mol K)]       12.472 [J/(mol K)]       0.00475022 [mEh/K]
    Rotational Cv           2.981 [cal/(mol K)]       12.472 [J/(mol K)]       0.00475022 [mEh/K]
    Vibrational Cv          4.534 [cal/(mol K)]       18.970 [J/(mol K)]       0.00722532 [mEh/K]
  Total Cv                 10.496 [cal/(mol K)]       43.913 [J/(mol K)]       0.01672575 [mEh/K]
  Correction Cv             0.000 [cal/(mol K)]        0.000 [J/(mol K)]       0.00000000 [mEh/K]

  Constant pressure heat capacity, Cp
    Electronic Cp           0.000 [cal/(mol K)]        0.000 [J/(mol K)]       0.00000000 [mEh/K]
    Translational Cp        4.968 [cal/(mol K)]       20.786 [J/(mol K)]       0.00791703 [mEh/K]
    Rotational Cp           2.981 [cal/(mol K)]       12.472 [J/(mol K)]       0.00475022 [mEh/K]
    Vibrational Cp          4.534 [cal/(mol K)]       18.970 [J/(mol K)]       0.00722532 [mEh/K]
  Total Cp                 12.483 [cal/(mol K)]       52.228 [J/(mol K)]       0.01989256 [mEh/K]
  Correction Cp             0.000 [cal/(mol K)]        0.000 [J/(mol K)]       0.00000000 [mEh/K]

  ==> Thermochemistry Energy Analysis <==

  Raw electronic energy, E0
  Total E0, Electronic energy at well bottom at 0 [K]                 -117.50351448 [Eh]

  Zero-point energy, ZPE_vib = Sum_i nu_i / 2
    Electronic ZPE          0.000 [kcal/mol]        0.000 [kJ/mol]       0.00000000 [Eh]
    Translational ZPE       0.000 [kcal/mol]        0.000 [kJ/mol]       0.00000000 [Eh]
    Rotational ZPE          0.000 [kcal/mol]        0.000 [kJ/mol]       0.00000000 [Eh]
    Vibrational ZPE        51.716 [kcal/mol]      216.379 [kJ/mol]       0.08241429 [Eh]       18087.847 [cm^-1]
  Correction ZPE           51.716 [kcal/mol]      216.379 [kJ/mol]       0.08241429 [Eh]       18087.847 [cm^-1]
  Total ZPE, Electronic energy at 0 [K]                               -117.42110019 [Eh]

  Thermal Energy, E (includes ZPE)
    Electronic E            0.000 [kcal/mol]        0.000 [kJ/mol]       0.00000000 [Eh]
    Translational E         0.889 [kcal/mol]        3.718 [kJ/mol]       0.00141628 [Eh]
    Rotational E            0.889 [kcal/mol]        3.718 [kJ/mol]       0.00141628 [Eh]
    Vibrational E          52.005 [kcal/mol]      217.587 [kJ/mol]       0.08287469 [Eh]
  Correction E             53.782 [kcal/mol]      225.024 [kJ/mol]       0.08570725 [Eh]
  Total E, Electronic energy at  298.15 [K]                           -117.41780724 [Eh]

  Enthalpy, H_trans = E_trans + k_B * T
    Electronic H            0.000 [kcal/mol]        0.000 [kJ/mol]       0.00000000 [Eh]
    Translational H         1.481 [kcal/mol]        6.197 [kJ/mol]       0.00236046 [Eh]
    Rotational H            0.889 [kcal/mol]        3.718 [kJ/mol]       0.00141628 [Eh]
    Vibrational H          52.005 [kcal/mol]      217.587 [kJ/mol]       0.08287469 [Eh]
  Correction H             54.375 [kcal/mol]      227.503 [kJ/mol]       0.08665143 [Eh]
  Total H, Enthalpy at  298.15 [K]                                    -117.41686305 [Eh]

  Gibbs free energy, G = H - T * S
    Electronic G            0.000 [kcal/mol]        0.000 [kJ/mol]       0.00000000 [Eh]
    Translational G        -9.591 [kcal/mol]      -40.128 [kJ/mol]      -0.01528380 [Eh]
    Rotational G           -5.581 [kcal/mol]      -23.350 [kJ/mol]      -0.00889370 [Eh]
    Vibrational G          51.652 [kcal/mol]      216.111 [kJ/mol]       0.08231237 [Eh]
  Correction G             36.480 [kcal/mol]      152.633 [kJ/mol]       0.05813487 [Eh]
  Total G, Free enthalpy at  298.15 [K]                               -117.44537961 [Eh]

*** Psi4 exiting successfully. Buy a developer a beer!
