                               Psi4 1.3.2 release

  ==> Input File <==

--------------------------------------------------------------------------
set basis  6-31++G**
molecule {
0 1
   C        0.32153        0.81326        0.00000
   C       -0.86505       -0.12817        0.00000
   C        0.54353       -0.68508        0.00000
   H        0.53795        1.36069       -0.92039
   H        0.53795        1.36069        0.92039
   H       -1.44742       -0.21449        0.92034
   H       -1.44742       -0.21449       -0.92034
   H        0.90937       -1.14629       -0.92037
   H        0.90937       -1.14629        0.92037
}
energy('m06-2x')
frequencies('m06-2x')
--------------------------------------------------------------------------

    Molecular point group: cs
  Charge       = 0
  Multiplicity = 1
  Basis Set: 6-31++G**
    Blend: 6-31++G**
  Basis Set: (6-31++G** AUX)
    Blend: AUG-CC-PVDZ-JKFIT
  @DF-RKS Final Energy:  -117.84096351664451
    Total Energy =                       -117.8409635166445071
    Molecular point group: cs
  Basis Set: 6-31++G**
    Blend: 6-31++G**
  Basis Set: (6-31++G** AUX)
    Blend: AUG-CC-PVDZ-JKFIT
  @DF-RKS Final Energy:  -117.84096351688794
    Total Energy =                       -117.8409635168879390
  Basis Set: 6-31++G**
    Blend: 6-31++G**
  Basis Set: (6-31++G** AUX)
    Blend: AUG-CC-PVDZ-JKFIT
  Basis Set: 6-31++G**
    Blend: 6-31++G**
  Basis Set: (6-31++G** AUX)
    Blend: AUG-CC-PVDZ-JKFIT
  @DF-RKS Final Energy:  -117.84096351688760
    Total Energy =                       -117.8409635168875980
  Basis Set: 6-31++G**
  @DF-RKS Final Energy:  -117.84097669018513
    Total Energy =                       -117.8409766901851299
  @DF-RKS Final Energy:  -117.84097482941222
    Total Energy =                       -117.8409748294122323
  @DF-RKS Final Energy:  -117.84096785100164
    Total Energy =                       -117.8409678510016363
  @DF-RKS Final Energy:  -117.84095394822160
    Total Energy =                       -117.8409539482215962
  @DF-RKS Final Energy:  -117.84095631076886
    Total Energy =                       -117.8409563107688598
  @DF-RKS Final Energy:  -117.84097072658656
    Total Energy =                       -117.8409707265865620
  @DF-RKS Final Energy:  -117.84097332053410
    Total Energy =                       -117.8409733205341041
  @DF-RKS Final Energy:  -117.84097735940261
    Total Energy =                       -117.8409773594026149
  @DF-RKS Final Energy:  -117.84097490989407
    Total Energy =                       -117.8409749098940580
  @DF-RKS Final Energy:  -117.84096340791821
    Total Energy =                       -117.8409634079182098
  @DF-RKS Final Energy:  -117.84096390597628
    Total Energy =                       -117.8409639059762810
  @DF-RKS Final Energy:  -117.84096379673935
    Total Energy =                       -117.8409637967393451
  @DF-RKS Final Energy:  -117.84098631946945
    Total Energy =                       -117.8409863194694509
  @DF-RKS Final Energy:  -117.84096390237390
    Total Energy =                       -117.8409639023739004
  @DF-RKS Final Energy:  -117.84098636887316
    Total Energy =                       -117.8409863688731605
  @DF-RKS Final Energy:  -117.84093992018724
    Total Energy =                       -117.8409399201872390
  @DF-RKS Final Energy:  -117.84092528075547
    Total Energy =                       -117.8409252807554708
  @DF-RKS Final Energy:  -117.84099477179140
    Total Energy =                       -117.8409947717914008
  @DF-RKS Final Energy:  -117.84095526821081
    Total Energy =                       -117.8409552682108057
  @DF-RKS Final Energy:  -117.84100680012536
    Total Energy =                       -117.8410068001253563
  @DF-RKS Final Energy:  -117.84099477292715
    Total Energy =                       -117.8409947729271465
  @DF-RKS Final Energy:  -117.84092528101444
    Total Energy =                       -117.8409252810144210
  @DF-RKS Final Energy:  -117.84092540695148
    Total Energy =                       -117.8409254069514844
  @DF-RKS Final Energy:  -117.84099463769671
    Total Energy =                       -117.8409946376967099
  @DF-RKS Final Energy:  -117.84096164032538
    Total Energy =                       -117.8409616403253750
  @DF-RKS Final Energy:  -117.84096135509691
    Total Energy =                       -117.8409613550969084
  @DF-RKS Final Energy:  -117.84096054143397
    Total Energy =                       -117.8409605414339723
  @DF-RKS Final Energy:  -117.84096296387708
    Total Energy =                       -117.8409629638770753
  @DF-RKS Final Energy:  -117.84096114967365
    Total Energy =                       -117.8409611496736460
  @DF-RKS Final Energy:  -117.84096187222532
    Total Energy =                       -117.8409618722253214
  @DF-RKS Final Energy:  -117.84096121647526
    Total Energy =                       -117.8409612164752645
  Basis Set: (6-31++G** AUX)
    Blend: AUG-CC-PVDZ-JKFIT
  Basis Set: 6-31++G**
    Blend: 6-31++G**
  Basis Set: (6-31++G** AUX)
    Blend: AUG-CC-PVDZ-JKFIT
  @DF-RKS Final Energy:  -117.84096289642750
    Total Energy =                       -117.8409628964274987
  Basis Set: 6-31++G**
    Blend: 6-31++G**
  Basis Set: (6-31++G** AUX)
    Blend: AUG-CC-PVDZ-JKFIT
    Molecular point group: c1
  Charge       = 0
  Multiplicity = 1
  Basis Set: 6-31++G**
    Blend: 6-31++G**
  Basis Set: (6-31++G** AUX)
    Blend: AUG-CC-PVDZ-JKFIT

    Orbital Energies [Eh]
    ---------------------

    Doubly Occupied:

       1A    -10.549327     2A    -10.548753     3A    -10.548746
       4A     -0.944106     5A     -0.678174     6A     -0.678157
       7A     -0.564698     8A     -0.527768     9A     -0.423976
      10A     -0.423950    11A     -0.348779    12A     -0.348749

  @DF-RKS Final Energy:  -117.84096064646290

   => Energetics <=

    Nuclear Repulsion Energy =             75.2814718714328848
    One-Electron Energy =                -305.7658368852793842
    Two-Electron Energy =                 121.5349581408471096
    DFT Exchange-Correlation Energy =      -8.8915537734634924
    Empirical Dispersion Energy =           0.0000000000000000
    VV10 Nonlocal Energy =                  0.0000000000000000
    Total Energy =                       -117.8409606464628894

  Dipole Moment: [D]
     X:     0.0003      Y:    -0.0005      Z:    -0.0006     Total:     0.0008

    Molecular point group: c1

    Geometry (in Angstrom), charge = 0, multiplicity = 1:

       Center              X                  Y                   Z               Mass
    ------------   -----------------  -----------------  -----------------  -----------------
         C            0.321531939855     0.813261460475     0.000000000000    12.000000000000
         C           -0.865048060145    -0.128168539525     0.000000000000    12.000000000000
         C            0.543531939855    -0.685078539525     0.000000000000    12.000000000000
         H            0.537951939855     1.360691460475    -0.920390000000     1.007825032230
         H            0.537951939855     1.360691460475     0.920390000000     1.007825032230
         H           -1.447418060145    -0.214488539525     0.919737951237     1.007825032230
         H           -1.447418060145    -0.214488539525    -0.920942048763     1.007825032230
         H            0.907830274543    -1.145679013968    -0.919767951237     1.007825032230
         H            0.910913605168    -1.146898065083     0.920972048763     1.007825032230

  Basis Set: 6-31++G**
    Blend: 6-31++G**
  Basis Set: (6-31++G** AUX)
    Blend: AUG-CC-PVDZ-JKFIT

  -Total Gradient:
     Atom            X                  Y                   Z
    ------   -----------------  -----------------  -----------------
       1        0.001671412483     0.004184114181     0.000006075473
       2       -0.004415831825    -0.000631910342     0.000449133387
       3        0.002825189781    -0.003554697364    -0.001250714864
       4        0.001107436739     0.002777671767    -0.004937116391
       5        0.001111818040     0.002790260625     0.004934109442
       6       -0.002790196681    -0.000434191337     0.004644172647
       7       -0.003141338643    -0.000443136041    -0.005208089729
       8        0.001531803890    -0.002018817034    -0.004238133066
       9        0.002255613073    -0.002738802072     0.005599412505

  Vibration                       7                   8                   9
  Freq [cm^-1]                 781.7695            783.4892            891.7310
  Irrep                          App                 App                 App
  Reduced mass [u]              1.0220              1.0226              1.0440
  Force const [mDyne/A]         0.3680              0.3698              0.4891

  Vibration                       10                  11                  12
  Freq [cm^-1]                 897.5823            901.9005           1072.4567
  Irrep                           Ap                  Ap                  Ap
  Reduced mass [u]              3.8852              3.6124              1.2590
  Force const [mDyne/A]         1.8442              1.7312              0.8532

  Vibration                       13                  14                  15
  Freq [cm^-1]                1079.7631           1107.5737           1168.1505
  Irrep                           Ap                  Ap                 App
  Reduced mass [u]              1.2814              1.4015              1.0080
  Force const [mDyne/A]         0.8802              1.0129              0.8104

  Vibration                       16                  17                  18
  Freq [cm^-1]                1209.8125           1220.7712           1222.1597
  Irrep                           Ap                 App                 App
  Reduced mass [u]              2.6383              1.4468              1.4486
  Force const [mDyne/A]         2.2752              1.2704              1.2748

  Vibration                       19                  20                  21
  Freq [cm^-1]                1477.0278           1489.7659           1540.7788
  Irrep                           Ap                  Ap                  Ap
  Reduced mass [u]              1.0957              1.0890              1.3309
  Force const [mDyne/A]         1.4083              1.4240              1.8616

  Vibration                       22                  23                  24
  Freq [cm^-1]                3101.4793           3103.2112           3109.0406
  Irrep                           Ap                  Ap                  Ap
  Reduced mass [u]              1.0502              1.0505              1.0636
  Force const [mDyne/A]         5.9522              5.9603              6.0575

  Vibration                       25                  26                  27
  Freq [cm^-1]                3182.3599           3182.9031           3200.5519
  Irrep                          App                 App                 App
  Reduced mass [u]              1.1208              1.1206              1.1162
  Force const [mDyne/A]         6.6879              6.6890              6.7365

  ==> Thermochemistry Components <==

  Entropy, S
    Electronic S            0.000 [cal/(mol K)]        0.000 [J/(mol K)]       0.00000000 [mEh/K] (multiplicity = 1)
    Translational S        37.135 [cal/(mol K)]      155.375 [J/(mol K)]       0.05917914 [mEh/K] (mol. weight = 42.0470 [u], P = 101325.00 [Pa])
    Rotational S           21.699 [cal/(mol K)]       90.789 [J/(mol K)]       0.03457982 [mEh/K] (symmetry no. = 1)
    Vibrational S           1.263 [cal/(mol K)]        5.286 [J/(mol K)]       0.00201326 [mEh/K]
  Total S                  60.098 [cal/(mol K)]      251.450 [J/(mol K)]       0.09577222 [mEh/K]
  Correction S              0.000 [cal/(mol K)]        0.000 [J/(mol K)]       0.00000000 [mEh/K]

  Constant volume heat capacity, Cv
    Electronic Cv           0.000 [cal/(mol K)]        0.000 [J/(mol K)]       0.00000000 [mEh/K]
    Translational Cv        2.981 [cal/(mol K)]       12.472 [J/(mol K)]       0.00475022 [mEh/K]
    Rotational Cv           2.981 [cal/(mol K)]       12.472 [J/(mol K)]       0.00475022 [mEh/K]
    Vibrational Cv          4.780 [cal/(mol K)]       19.998 [J/(mol K)]       0.00761681 [mEh/K]
  Total Cv                 10.741 [cal/(mol K)]       44.941 [J/(mol K)]       0.01711724 [mEh/K]
  Correction Cv             0.000 [cal/(mol K)]        0.000 [J/(mol K)]       0.00000000 [mEh/K]

  Constant pressure heat capacity, Cp
    Electronic Cp           0.000 [cal/(mol K)]        0.000 [J/(mol K)]       0.00000000 [mEh/K]
    Translational Cp        4.968 [cal/(mol K)]       20.786 [J/(mol K)]       0.00791703 [mEh/K]
    Rotational Cp           2.981 [cal/(mol K)]       12.472 [J/(mol K)]       0.00475022 [mEh/K]
    Vibrational Cp          4.780 [cal/(mol K)]       19.998 [J/(mol K)]       0.00761681 [mEh/K]
  Total Cp                 12.728 [cal/(mol K)]       53.256 [J/(mol K)]       0.02028405 [mEh/K]
  Correction Cp             0.000 [cal/(mol K)]        0.000 [J/(mol K)]       0.00000000 [mEh/K]

  ==> Thermochemistry Energy Analysis <==

  Raw electronic energy, E0
  Total E0, Electronic energy at well bottom at 0 [K]                 -117.84096352 [Eh]

  Zero-point energy, ZPE_vib = Sum_i nu_i / 2
    Electronic ZPE          0.000 [kcal/mol]        0.000 [kJ/mol]       0.00000000 [Eh]
    Translational ZPE       0.000 [kcal/mol]        0.000 [kJ/mol]       0.00000000 [Eh]
    Rotational ZPE          0.000 [kcal/mol]        0.000 [kJ/mol]       0.00000000 [Eh]
    Vibrational ZPE        51.070 [kcal/mol]      213.679 [kJ/mol]       0.08138589 [Eh]       17862.139 [cm^-1]
  Correction ZPE           51.070 [kcal/mol]      213.679 [kJ/mol]       0.08138589 [Eh]       17862.139 [cm^-1]
  Total ZPE, Electronic energy at 0 [K]                               -117.75957762 [Eh]

  Thermal Energy, E (includes ZPE)
    Electronic E            0.000 [kcal/mol]        0.000 [kJ/mol]       0.00000000 [Eh]
    Translational E         0.889 [kcal/mol]        3.718 [kJ/mol]       0.00141628 [Eh]
    Rotational E            0.889 [kcal/mol]        3.718 [kJ/mol]       0.00141628 [Eh]
    Vibrational E          51.378 [kcal/mol]      214.966 [kJ/mol]       0.08187641 [Eh]
  Correction E             53.156 [kcal/mol]      222.403 [kJ/mol]       0.08470896 [Eh]
  Total E, Electronic energy at  298.15 [K]                           -117.75625455 [Eh]

  Enthalpy, H_trans = E_trans + k_B * T
    Electronic H            0.000 [kcal/mol]        0.000 [kJ/mol]       0.00000000 [Eh]
    Translational H         1.481 [kcal/mol]        6.197 [kJ/mol]       0.00236046 [Eh]
    Rotational H            0.889 [kcal/mol]        3.718 [kJ/mol]       0.00141628 [Eh]
    Vibrational H          51.378 [kcal/mol]      214.966 [kJ/mol]       0.08187641 [Eh]
  Correction H             53.748 [kcal/mol]      224.882 [kJ/mol]       0.08565315 [Eh]
  Total H, Enthalpy at  298.15 [K]                                    -117.75531037 [Eh]

  Gibbs free energy, G = H - T * S
    Electronic G            0.000 [kcal/mol]        0.000 [kJ/mol]       0.00000000 [Eh]
    Translational G        -9.591 [kcal/mol]      -40.128 [kJ/mol]      -0.01528380 [Eh]
    Rotational G           -5.581 [kcal/mol]      -23.350 [kJ/mol]      -0.00889370 [Eh]
    Vibrational G          51.002 [kcal/mol]      213.391 [kJ/mol]       0.08127616 [Eh]
  Correction G             35.830 [kcal/mol]      149.913 [kJ/mol]       0.05709866 [Eh]
  Total G, Free enthalpy at  298.15 [K]                               -117.78386486 [Eh]

*** Psi4 exiting successfully. Buy a developer a beer!
