                               Psi4 1.3.2 release

  ==> Input File <==

--------------------------------------------------------------------------
set basis  cc-pVTZ
molecule {
0 1
   C       -0.61446        0.00000        0.00000
   C        0.61446        0.00000        0.00000
   H       -1.68923        0.00000        0.00000
   H        1.68923        0.00000        0.00000
}
energy('MP2')
frequencies('MP2')
--------------------------------------------------------------------------

    Molecular point group: d2h
  Charge       = 0
  Multiplicity = 1
  Basis Set: CC-PVTZ
    Blend: CC-PVTZ
  Basis Set: (CC-PVTZ AUX)
    Blend: CC-PVTZ-JKFIT
  @DF-RHF Final Energy:   -76.84495064917915
    Total Energy =                        -76.8449506491791681
  Basis Set: (CC-PVTZ AUX)
    Blend: CC-PVTZ-RI
	 Reference Energy          =     -76.8449506491791539 [Eh]
	 Singles Energy            =      -0.0000000000000000 [Eh]
	 Same-Spin Energy          =      -0.0770456525357508 [Eh]
	 Opposite-Spin Energy      =      -0.2653148488573050 [Eh]
	 Correlation Energy        =      -0.3423605013930558 [Eh]
	 Total Energy              =     -77.1873111505722136 [Eh]
	 SCS Total Energy          =     -77.1890103519864965 [Eh]
    Molecular point group: d2h
  Basis Set: CC-PVTZ
    Blend: CC-PVTZ
  Basis Set: (CC-PVTZ AUX)
    Blend: CC-PVTZ-JKFIT
  @DF-RHF Final Energy:   -76.84495064917911
    Total Energy =                        -76.8449506491791112
  Basis Set: (CC-PVTZ AUX)
  @DF-RHF Final Energy:   -76.84495064917911
    Total Energy =                        -76.8449506491791112
  @DF-RHF Final Energy:   -76.84477038289626
    Total Energy =                        -76.8447703828962574
  @DF-RHF Final Energy:   -76.84512594823002
    Total Energy =                        -76.8451259482300202
  @DF-RHF Final Energy:   -76.84483351061309
    Total Energy =                        -76.8448335106130855
  @DF-RHF Final Energy:   -76.84505789670993
    Total Energy =                        -76.8450578967099460
  @DF-RHF Final Energy:   -76.84495046154126
    Total Energy =                        -76.8449504615412593
  @DF-RHF Final Energy:   -76.84495041460720
    Total Energy =                        -76.8449504146071973
  @DF-RHF Final Energy:   -76.84495046154549
    Total Energy =                        -76.8449504615454941
  @DF-RHF Final Energy:   -76.84495041456242
    Total Energy =                        -76.8449504145624189
  @DF-RHF Final Energy:   -76.84495022049502
    Total Energy =                        -76.8449502204950363
  @DF-RHF Final Energy:   -76.84495022050449
    Total Energy =                        -76.8449502205044865
    Molecular point group: c2v
  Charge       = 0
  Multiplicity = 1
  Basis Set: CC-PVTZ
    Blend: CC-PVTZ
  Basis Set: (CC-PVTZ AUX)
    Blend: CC-PVTZ-JKFIT

    Orbital Energies [Eh]
    ---------------------

    Doubly Occupied:

       1A1   -11.251018     2A1   -11.247744     3A1    -1.020469
       4A1    -0.765351     5A1    -0.674966     1B1    -0.403734
       1B2    -0.403734

  @DF-RHF Final Energy:   -76.84494529980310

   => Energetics <=

    Nuclear Repulsion Energy =             24.3232393838559098
    One-Electron Energy =                -150.8023372063911722
    Two-Electron Energy =                  49.6341525227321725
    Total Energy =                        -76.8449452998031006

  Dipole Moment: [D]
     X:     0.0043      Y:     0.0000      Z:     0.0000     Total:     0.0043

  Basis Set: (CC-PVTZ AUX)
    Blend: CC-PVTZ-RI
    Molecular point group: c2v

    Geometry (in Angstrom), charge = 0, multiplicity = 1:

       Center              X                  Y                   Z               Mass
    ------------   -----------------  -----------------  -----------------  -----------------
         C           -0.614610333491     0.000000000000     0.000000000000    12.000000000000
         C            0.614309666509     0.000000000000     0.000000000000    12.000000000000
         H           -1.687440004874     0.000000000000     0.000000000000     1.007825032230
         H            1.691019995126     0.000000000000     0.000000000000     1.007825032230

  Basis Set: CC-PVTZ
    Blend: CC-PVTZ
  Basis Set: (CC-PVTZ AUX)
    Blend: CC-PVTZ-JKFIT
  Basis Set: (CC-PVTZ AUX)
    Blend: CC-PVTZ-JKFIT
	 Reference Energy          =     -76.8449452998031006 [Eh]
	 Singles Energy            =      -0.0000000000000000 [Eh]
	 Same-Spin Energy          =      -0.0770456854963997 [Eh]
	 Opposite-Spin Energy      =      -0.2653150811230240 [Eh]
	 Correlation Energy        =      -0.3423607666194238 [Eh]
	 Total Energy              =     -77.1873060664225221 [Eh]

	 ================> DF-SCS-MP2 Energies <==================
	-----------------------------------------------------------
	 SCS Same-Spin Scale       =       0.3333333333333333 [-]
	 SCS Opposite-Spin Scale   =       1.2000000000000000 [-]
	 SCS Same-Spin Energy      =      -0.0256818951654666 [Eh]
	 SCS Opposite-Spin Energy  =      -0.3183780973476288 [Eh]
	 SCS Correlation Energy    =      -0.3440599925130954 [Eh]
	 SCS Total Energy          =     -77.1890052923161960 [Eh]
	-----------------------------------------------------------

  -Total Gradient:
     Atom            X                  Y                   Z
    ------   -----------------  -----------------  -----------------
       1       -0.026620336751     0.000000000000     0.000000000000
       2        0.023847236106     0.000000000000     0.000000000000
       3       -0.011745132152     0.000000000000     0.000000000000
       4        0.014518232797     0.000000000000     0.000000000000

  Vibration                       4                   5                   6
  Freq [cm^-1]                 262.7535            262.7535            687.9856
  Irrep                          B2g                 B1g                 B1g
  Reduced mass [u]              2.6800              2.6800              1.4236
  Force const [mDyne/A]         0.1090              0.1090              0.3970

  Vibration                       7                   8                   9
  Freq [cm^-1]                 687.9856            847.3093            847.3093
  Irrep                          B2g                 B2u                 B1u
  Reduced mass [u]              1.4236              1.0848              1.0848
  Force const [mDyne/A]         0.3970              0.4589              0.4589

  Vibration                       10                  11                  12
  Freq [cm^-1]                1865.5793           3278.3413           3385.2513
  Irrep                           Ag                 B3u                  Ag
  Reduced mass [u]              4.1242              1.0848              1.2003
  Force const [mDyne/A]         8.4571              6.8693              8.1047

  ==> Thermochemistry Components <==

  Entropy, S
    Electronic S            0.000 [cal/(mol K)]        0.000 [J/(mol K)]       0.00000000 [mEh/K] (multiplicity = 1)
    Translational S        35.704 [cal/(mol K)]      149.387 [J/(mol K)]       0.05689862 [mEh/K] (mol. weight = 26.0157 [u], P = 101325.00 [Pa])
    Rotational S           10.952 [cal/(mol K)]       45.824 [J/(mol K)]       0.01745345 [mEh/K] (symmetry no. = 2)
    Vibrational S           4.275 [cal/(mol K)]       17.885 [J/(mol K)]       0.00681215 [mEh/K]
  Total S                  50.931 [cal/(mol K)]      213.097 [J/(mol K)]       0.08116422 [mEh/K]
  Correction S              0.000 [cal/(mol K)]        0.000 [J/(mol K)]       0.00000000 [mEh/K]

  Constant volume heat capacity, Cv
    Electronic Cv           0.000 [cal/(mol K)]        0.000 [J/(mol K)]       0.00000000 [mEh/K]
    Translational Cv        2.981 [cal/(mol K)]       12.472 [J/(mol K)]       0.00475022 [mEh/K]
    Rotational Cv           1.987 [cal/(mol K)]        8.314 [J/(mol K)]       0.00316681 [mEh/K]
    Vibrational Cv          6.359 [cal/(mol K)]       26.605 [J/(mol K)]       0.01013327 [mEh/K]
  Total Cv                 11.327 [cal/(mol K)]       47.391 [J/(mol K)]       0.01805029 [mEh/K]
  Correction Cv             0.000 [cal/(mol K)]        0.000 [J/(mol K)]       0.00000000 [mEh/K]

  Constant pressure heat capacity, Cp
    Electronic Cp           0.000 [cal/(mol K)]        0.000 [J/(mol K)]       0.00000000 [mEh/K]
    Translational Cp        4.968 [cal/(mol K)]       20.786 [J/(mol K)]       0.00791703 [mEh/K]
    Rotational Cp           1.987 [cal/(mol K)]        8.314 [J/(mol K)]       0.00316681 [mEh/K]
    Vibrational Cp          6.359 [cal/(mol K)]       26.605 [J/(mol K)]       0.01013327 [mEh/K]
  Total Cp                 13.314 [cal/(mol K)]       55.705 [J/(mol K)]       0.02121710 [mEh/K]
  Correction Cp             0.000 [cal/(mol K)]        0.000 [J/(mol K)]       0.00000000 [mEh/K]

  ==> Thermochemistry Energy Analysis <==

  Raw electronic energy, E0
  Total E0, Electronic energy at well bottom at 0 [K]                  -77.18731115 [Eh]

  Zero-point energy, ZPE_vib = Sum_i nu_i / 2
    Electronic ZPE          0.000 [kcal/mol]        0.000 [kJ/mol]       0.00000000 [Eh]
    Translational ZPE       0.000 [kcal/mol]        0.000 [kJ/mol]       0.00000000 [Eh]
    Rotational ZPE          0.000 [kcal/mol]        0.000 [kJ/mol]       0.00000000 [Eh]
    Vibrational ZPE        17.334 [kcal/mol]       72.525 [kJ/mol]       0.02762339 [Eh]        6062.634 [cm^-1]
  Correction ZPE           17.334 [kcal/mol]       72.525 [kJ/mol]       0.02762339 [Eh]        6062.634 [cm^-1]
  Total ZPE, Electronic energy at 0 [K]                                -77.15968776 [Eh]

  Thermal Energy, E (includes ZPE)
    Electronic E            0.000 [kcal/mol]        0.000 [kJ/mol]       0.00000000 [Eh]
    Translational E         0.889 [kcal/mol]        3.718 [kJ/mol]       0.00141628 [Eh]
    Rotational E            0.592 [kcal/mol]        2.479 [kJ/mol]       0.00094418 [Eh]
    Vibrational E          18.153 [kcal/mol]       75.953 [kJ/mol]       0.02892885 [Eh]
  Correction E             19.634 [kcal/mol]       82.150 [kJ/mol]       0.03128931 [Eh]
  Total E, Electronic energy at  298.15 [K]                            -77.15602184 [Eh]

  Enthalpy, H_trans = E_trans + k_B * T
    Electronic H            0.000 [kcal/mol]        0.000 [kJ/mol]       0.00000000 [Eh]
    Translational H         1.481 [kcal/mol]        6.197 [kJ/mol]       0.00236046 [Eh]
    Rotational H            0.592 [kcal/mol]        2.479 [kJ/mol]       0.00094418 [Eh]
    Vibrational H          18.153 [kcal/mol]       75.953 [kJ/mol]       0.02892885 [Eh]
  Correction H             20.227 [kcal/mol]       84.629 [kJ/mol]       0.03223350 [Eh]
  Total H, Enthalpy at  298.15 [K]                                     -77.15507765 [Eh]

  Gibbs free energy, G = H - T * S
    Electronic G            0.000 [kcal/mol]        0.000 [kJ/mol]       0.00000000 [Eh]
    Translational G        -9.164 [kcal/mol]      -38.342 [kJ/mol]      -0.01460386 [Eh]
    Rotational G           -2.673 [kcal/mol]      -11.183 [kJ/mol]      -0.00425956 [Eh]
    Vibrational G          16.879 [kcal/mol]       70.620 [kJ/mol]       0.02689781 [Eh]
  Correction G              5.042 [kcal/mol]       21.094 [kJ/mol]       0.00803438 [Eh]
  Total G, Free enthalpy at  298.15 [K]                                -77.17927677 [Eh]

*** Psi4 exiting successfully. Buy a developer a beer!
