                               Psi4 1.3.2 release

  ==> Input File <==

--------------------------------------------------------------------------
set basis  6-31G
molecule {
0 1
   C       -1.22151       -0.69325        0.00000
   C       -1.21114        0.71122        0.00000
   C       -0.01037       -1.40452        0.00000
   C        0.01037        1.40452        0.00000
   C        1.21114       -0.71122        0.00000
   C        1.22151        0.69325        0.00000
   H       -2.17311       -1.23332        0.00000
   H       -2.15464        1.26533        0.00000
   H       -0.01848       -2.49865        0.00000
   H        0.01848        2.49865        0.00000
   H        2.15464       -1.26533        0.00000
   H        2.17311        1.23332        0.00000
}
energy('m06-2x')
frequencies('m06-2x')
--------------------------------------------------------------------------

    Molecular point group: c2h
  Charge       = 0
  Multiplicity = 1
  Basis Set: 6-31G
    Blend: 6-31G
  Basis Set: (6-31G AUX)
    Blend: CC-PVDZ-JKFIT
  @DF-RKS Final Energy:  -232.09065494530617
    Total Energy =                       -232.0906549453061700
    Molecular point group: c2h
  Basis Set: 6-31G
    Blend: 6-31G
  Basis Set: (6-31G AUX)
    Blend: CC-PVDZ-JKFIT
  @DF-RKS Final Energy:  -232.09065494517492
    Total Energy =                       -232.0906549451749470
  Basis Set: 6-31G
    Blend: 6-31G
  Basis Set: (6-31G AUX)
    Blend: CC-PVDZ-JKFIT
  Basis Set: 6-31G
    Blend: 6-31G
  Basis Set: (6-31G AUX)
    Blend: CC-PVDZ-JKFIT
  @DF-RKS Final Energy:  -232.09065494549506
    Total Energy =                       -232.0906549454950323
  Basis Set: 6-31G
  @DF-RKS Final Energy:  -232.09076501644572
    Total Energy =                       -232.0907650164457152
  @DF-RKS Final Energy:  -232.09077396213718
    Total Energy =                       -232.0907739621371775
  @DF-RKS Final Energy:  -232.09074013776686
    Total Energy =                       -232.0907401377668293
  @DF-RKS Final Energy:  -232.09070571336585
    Total Energy =                       -232.0907057133658782
  @DF-RKS Final Energy:  -232.09075244770690
    Total Energy =                       -232.0907524477069046
  @DF-RKS Final Energy:  -232.09074679791519
    Total Energy =                       -232.0907467979151875
  @DF-RKS Final Energy:  -232.09073118870720
    Total Energy =                       -232.0907311887072240
  @DF-RKS Final Energy:  -232.09073334598907
    Total Energy =                       -232.0907333459890936
  @DF-RKS Final Energy:  -232.09070313789871
    Total Energy =                       -232.0907031378986858
  @DF-RKS Final Energy:  -232.09073946368599
    Total Energy =                       -232.0907394636859920
  @DF-RKS Final Energy:  -232.09067635846202
    Total Energy =                       -232.0906763584620194
  @DF-RKS Final Energy:  -232.09068052223265
    Total Energy =                       -232.0906805222326170
  @DF-RKS Final Energy:  -232.09072065619529
    Total Energy =                       -232.0907206561952592
  @DF-RKS Final Energy:  -232.09081272957832
    Total Energy =                       -232.0908127295783174
  @DF-RKS Final Energy:  -232.09071203036345
    Total Energy =                       -232.0907120303634485
  @DF-RKS Final Energy:  -232.09074595103525
    Total Energy =                       -232.0907459510352169
  @DF-RKS Final Energy:  -232.09070589615646
    Total Energy =                       -232.0907058961564644
  @DF-RKS Final Energy:  -232.09072362226794
    Total Energy =                       -232.0907236222679444
  @DF-RKS Final Energy:  -232.09065459848034
    Total Energy =                       -232.0906545984803415
  @DF-RKS Final Energy:  -232.09065449854347
    Total Energy =                       -232.0906544985434721
  @DF-RKS Final Energy:  -232.09065456103605
    Total Energy =                       -232.0906545610360752
  @DF-RKS Final Energy:  -232.09065444645105
    Total Energy =                       -232.0906544464510262
  @DF-RKS Final Energy:  -232.09065472566616
    Total Energy =                       -232.0906547256661554
  @DF-RKS Final Energy:  -232.09065472183363
    Total Energy =                       -232.0906547218336300
  @DF-RKS Final Energy:  -232.09065467608841
    Total Energy =                       -232.0906546760884055
  @DF-RKS Final Energy:  -232.09065453801139
    Total Energy =                       -232.0906545380113926
  @DF-RKS Final Energy:  -232.09065453716647
    Total Energy =                       -232.0906545371664436
  @DF-RKS Final Energy:  -232.09065367916654
    Total Energy =                       -232.0906536791665644
  @DF-RKS Final Energy:  -232.09065423530410
    Total Energy =                       -232.0906542353041004
  @DF-RKS Final Energy:  -232.09065348252787
    Total Energy =                       -232.0906534825278698
  @DF-RKS Final Energy:  -232.09065421550804
    Total Energy =                       -232.0906542155080388
  @DF-RKS Final Energy:  -232.09065227111586
    Total Energy =                       -232.0906522711158289
  @DF-RKS Final Energy:  -232.09065260226532
    Total Energy =                       -232.0906526022653225
  @DF-RKS Final Energy:  -232.09065154990364
    Total Energy =                       -232.0906515499036118
  @DF-RKS Final Energy:  -232.09065330661909
    Total Energy =                       -232.0906533066190889
  Basis Set: (6-31G AUX)
    Blend: CC-PVDZ-JKFIT
  Basis Set: 6-31G
    Blend: 6-31G
  Basis Set: (6-31G AUX)
    Blend: CC-PVDZ-JKFIT
  @DF-RKS Final Energy:  -232.09065247125804
    Total Energy =                       -232.0906524712580392
  Basis Set: 6-31G
    Blend: 6-31G
  Basis Set: (6-31G AUX)
    Blend: CC-PVDZ-JKFIT
    Molecular point group: cs
  Charge       = 0
  Multiplicity = 1
  Basis Set: 6-31G
    Blend: 6-31G
  Basis Set: (6-31G AUX)
    Blend: CC-PVDZ-JKFIT

    Orbital Energies [Eh]
    ---------------------

    Doubly Occupied:

       1Ap   -10.551567     2Ap   -10.551273     3Ap   -10.551246
       4Ap   -10.550611     5Ap   -10.550588     6Ap   -10.550284
       7Ap    -0.950737     8Ap    -0.835490     9Ap    -0.835485
      10Ap    -0.679385    11Ap    -0.679372    12Ap    -0.594003
      13Ap    -0.528394    14Ap    -0.507185    15Ap    -0.484970
      16Ap    -0.484958     1App   -0.428700    17Ap    -0.398452
      18Ap    -0.398437     2App   -0.298938     3App   -0.298928

  @DF-RKS Final Energy:  -232.09065238471777

   => Energetics <=

    Nuclear Repulsion Energy =            202.0133184684007119
    One-Electron Energy =                -710.9951478137795675
    Two-Electron Energy =                 293.6144878721015630
    DFT Exchange-Correlation Energy =     -16.7233109114404499
    Empirical Dispersion Energy =           0.0000000000000000
    VV10 Nonlocal Energy =                  0.0000000000000000
    Total Energy =                       -232.0906523847177425

  Dipole Moment: [D]
     X:    -0.0010      Y:    -0.0016      Z:     0.0000     Total:     0.0019

    Molecular point group: cs

    Geometry (in Angstrom), charge = 0, multiplicity = 1:

       Center              X                  Y                   Z               Mass
    ------------   -----------------  -----------------  -----------------  -----------------
         C           -1.221510000000    -0.693250000000     0.000000000000    12.000000000000
         C           -1.211140000000     0.711220000000     0.000000000000    12.000000000000
         C           -0.010370000000    -1.404520000000     0.000000000000    12.000000000000
         C            0.010370000000     1.404520000000     0.000000000000    12.000000000000
         C            1.211140000000    -0.711220000000     0.000000000000    12.000000000000
         C            1.221510000000     0.693250000000     0.000000000000    12.000000000000
         H           -2.173110000000    -1.233320000000     0.000000000000     1.007825032230
         H           -2.154640000000     1.264012202829     0.000000000000     1.007825032230
         H           -0.018480000000    -2.497332202829     0.000000000000     1.007825032230
         H            0.018480000000     2.499967797171     0.000000000000     1.007825032230
         H            2.154640000000    -1.266647797171     0.000000000000     1.007825032230
         H            2.173110000000     1.233320000000     0.000000000000     1.007825032230

  Basis Set: 6-31G
    Blend: 6-31G
  Basis Set: (6-31G AUX)
    Blend: CC-PVDZ-JKFIT

  -Total Gradient:
     Atom            X                  Y                   Z
    ------   -----------------  -----------------  -----------------
       1       -0.001394829291    -0.000696159051     0.000000000000
       2       -0.001606501431     0.001051797948     0.000000000000
       3        0.000046138181    -0.002379735567     0.000000000000
       4        0.000033759751     0.000713796853     0.000000000000
       5        0.001065583397    -0.000445958835     0.000000000000
       6        0.001227488921     0.000703925530     0.000000000000
       7       -0.006013994241    -0.003425252841     0.000000000000
       8       -0.005665638171     0.003179768122     0.000000000000
       9       -0.000046279812    -0.006040784816     0.000000000000
      10        0.000046903266     0.007781257040     0.000000000000
      11        0.006286641932    -0.003858071345     0.000000000000
      12        0.006022840568     0.003418850196     0.000000000000

  Vibration                       7                   8                   9
  Freq [cm^-1]                 443.1147            443.9519            627.5280
  Irrep                           Au                  Au                  Ag
  Reduced mass [u]              2.9273              2.9399              6.4807
  Force const [mDyne/A]         0.3386              0.3414              1.5036

  Vibration                       10                  11                  12
  Freq [cm^-1]                 635.6868            751.9697            767.0583
  Irrep                           Ag                  Bg                  Au
  Reduced mass [u]              5.9713              3.2813              1.0848
  Force const [mDyne/A]         1.4217              1.0932              0.3761

  Vibration                       13                  14                  15
  Freq [cm^-1]                 939.8861            941.2086           1028.6448
  Irrep                           Bg                  Bg                  Ag
  Reduced mass [u]              1.2479              1.2479              5.9212
  Force const [mDyne/A]         0.6495              0.6513              3.6914

  Vibration                       16                  17                  18
  Freq [cm^-1]                1043.9397           1060.0693           1061.1765
  Irrep                           Bu                  Au                  Au
  Reduced mass [u]              6.5141              1.3625              1.3598
  Force const [mDyne/A]         4.1827              0.9021              0.9022

  Vibration                       19                  20                  21
  Freq [cm^-1]                1082.7294           1083.0975           1100.8084
  Irrep                           Bu                  Bu                  Bg
  Reduced mass [u]              1.8003              1.7999              1.2973
  Force const [mDyne/A]         1.2435              1.2441              0.9262

  Vibration                       22                  23                  24
  Freq [cm^-1]                1211.9199           1228.9126           1241.0487
  Irrep                           Bu                  Ag                  Ag
  Reduced mass [u]              1.2478              1.1402              1.1584
  Force const [mDyne/A]         1.0798              1.0146              1.0512

  Vibration                       25                  26                  27
  Freq [cm^-1]                1325.9571           1368.7052           1545.3948
  Irrep                           Bu                  Ag                  Bu
  Reduced mass [u]              3.6478              1.2574              1.8879
  Force const [mDyne/A]         3.7787              1.3878              2.6564

  Vibration                       28                  29                  30
  Freq [cm^-1]                1545.7636           1656.2310           1667.2653
  Irrep                           Bu                  Ag                  Ag
  Reduced mass [u]              1.8883              4.9539              4.8693
  Force const [mDyne/A]         2.6584              8.0064              7.9748

  Vibration                       31                  32                  33
  Freq [cm^-1]                3132.4059           3140.2913           3142.0506
  Irrep                           Bu                  Ag                  Ag
  Reduced mass [u]              1.0845              1.0887              1.0881
  Force const [mDyne/A]         6.2697              6.3254              6.3291

  Vibration                       34                  35                  36
  Freq [cm^-1]                3158.0769           3158.1964           3171.5589
  Irrep                           Bu                  Bu                  Ag
  Reduced mass [u]              1.0962              1.0962              1.1011
  Force const [mDyne/A]         6.4416              6.4420              6.5259

  ==> Thermochemistry Components <==

  Entropy, S
    Electronic S            0.000 [cal/(mol K)]        0.000 [J/(mol K)]       0.00000000 [mEh/K] (multiplicity = 1)
    Translational S        38.979 [cal/(mol K)]      163.089 [J/(mol K)]       0.06211726 [mEh/K] (mol. weight = 78.0470 [u], P = 101325.00 [Pa])
    Rotational S           24.318 [cal/(mol K)]      101.746 [J/(mol K)]       0.03875307 [mEh/K] (symmetry no. = 2)
    Vibrational S           3.843 [cal/(mol K)]       16.077 [J/(mol K)]       0.00612349 [mEh/K]
  Total S                  67.140 [cal/(mol K)]      280.912 [J/(mol K)]       0.10699382 [mEh/K]
  Correction S              0.000 [cal/(mol K)]        0.000 [J/(mol K)]       0.00000000 [mEh/K]

  Constant volume heat capacity, Cv
    Electronic Cv           0.000 [cal/(mol K)]        0.000 [J/(mol K)]       0.00000000 [mEh/K]
    Translational Cv        2.981 [cal/(mol K)]       12.472 [J/(mol K)]       0.00475022 [mEh/K]
    Rotational Cv           2.981 [cal/(mol K)]       12.472 [J/(mol K)]       0.00475022 [mEh/K]
    Vibrational Cv         10.223 [cal/(mol K)]       42.773 [J/(mol K)]       0.01629124 [mEh/K]
  Total Cv                 16.185 [cal/(mol K)]       67.716 [J/(mol K)]       0.02579167 [mEh/K]
  Correction Cv             0.000 [cal/(mol K)]        0.000 [J/(mol K)]       0.00000000 [mEh/K]

  Constant pressure heat capacity, Cp
    Electronic Cp           0.000 [cal/(mol K)]        0.000 [J/(mol K)]       0.00000000 [mEh/K]
    Translational Cp        4.968 [cal/(mol K)]       20.786 [J/(mol K)]       0.00791703 [mEh/K]
    Rotational Cp           2.981 [cal/(mol K)]       12.472 [J/(mol K)]       0.00475022 [mEh/K]
    Vibrational Cp         10.223 [cal/(mol K)]       42.773 [J/(mol K)]       0.01629124 [mEh/K]
  Total Cp                 18.172 [cal/(mol K)]       76.030 [J/(mol K)]       0.02895848 [mEh/K]
  Correction Cp             0.000 [cal/(mol K)]        0.000 [J/(mol K)]       0.00000000 [mEh/K]

  ==> Thermochemistry Energy Analysis <==

  Raw electronic energy, E0
  Total E0, Electronic energy at well bottom at 0 [K]                 -232.09065495 [Eh]

  Zero-point energy, ZPE_vib = Sum_i nu_i / 2
    Electronic ZPE          0.000 [kcal/mol]        0.000 [kJ/mol]       0.00000000 [Eh]
    Translational ZPE       0.000 [kcal/mol]        0.000 [kJ/mol]       0.00000000 [Eh]
    Rotational ZPE          0.000 [kcal/mol]        0.000 [kJ/mol]       0.00000000 [Eh]
    Vibrational ZPE        63.909 [kcal/mol]      267.393 [kJ/mol]       0.10184468 [Eh]       22352.324 [cm^-1]
  Correction ZPE           63.909 [kcal/mol]      267.393 [kJ/mol]       0.10184468 [Eh]       22352.324 [cm^-1]
  Total ZPE, Electronic energy at 0 [K]                               -231.98881026 [Eh]

  Thermal Energy, E (includes ZPE)
    Electronic E            0.000 [kcal/mol]        0.000 [kJ/mol]       0.00000000 [Eh]
    Translational E         0.889 [kcal/mol]        3.718 [kJ/mol]       0.00141628 [Eh]
    Rotational E            0.889 [kcal/mol]        3.718 [kJ/mol]       0.00141628 [Eh]
    Vibrational E          64.773 [kcal/mol]      271.009 [kJ/mol]       0.10322187 [Eh]
  Correction E             66.550 [kcal/mol]      278.446 [kJ/mol]       0.10605442 [Eh]
  Total E, Electronic energy at  298.15 [K]                           -231.98460052 [Eh]

  Enthalpy, H_trans = E_trans + k_B * T
    Electronic H            0.000 [kcal/mol]        0.000 [kJ/mol]       0.00000000 [Eh]
    Translational H         1.481 [kcal/mol]        6.197 [kJ/mol]       0.00236046 [Eh]
    Rotational H            0.889 [kcal/mol]        3.718 [kJ/mol]       0.00141628 [Eh]
    Vibrational H          64.773 [kcal/mol]      271.009 [kJ/mol]       0.10322187 [Eh]
  Correction H             67.143 [kcal/mol]      280.925 [kJ/mol]       0.10699861 [Eh]
  Total H, Enthalpy at  298.15 [K]                                    -231.98365634 [Eh]

  Gibbs free energy, G = H - T * S
    Electronic G            0.000 [kcal/mol]        0.000 [kJ/mol]       0.00000000 [Eh]
    Translational G       -10.140 [kcal/mol]      -42.428 [kJ/mol]      -0.01615980 [Eh]
    Rotational G           -6.362 [kcal/mol]      -26.617 [kJ/mol]      -0.01013795 [Eh]
    Vibrational G          63.627 [kcal/mol]      266.216 [kJ/mol]       0.10139615 [Eh]
  Correction G             47.125 [kcal/mol]      197.171 [kJ/mol]       0.07509840 [Eh]
  Total G, Free enthalpy at  298.15 [K]                               -232.01555655 [Eh]

*** Psi4 exiting successfully. Buy a developer a beer!
