                               Psi4 1.3.2 release

  ==> Input File <==

--------------------------------------------------------------------------
set basis  aug-cc-pVDZ
molecule {
0 1
   C        0.32153        0.81326        0.00000
   C       -0.86505       -0.12817        0.00000
   C        0.54353       -0.68508        0.00000
   H        0.53795        1.36069       -0.92039
   H        0.53795        1.36069        0.92039
   H       -1.44742       -0.21449        0.92034
   H       -1.44742       -0.21449       -0.92034
   H        0.90937       -1.14629       -0.92037
   H        0.90937       -1.14629        0.92037
}
energy('m06-2x')
frequencies('m06-2x')
--------------------------------------------------------------------------

    Molecular point group: cs
  Charge       = 0
  Multiplicity = 1
  Basis Set: AUG-CC-PVDZ
    Blend: AUG-CC-PVDZ
  Basis Set: (AUG-CC-PVDZ AUX)
    Blend: AUG-CC-PVDZ-JKFIT
  @DF-RKS Final Energy:  -117.84589794035985
    Total Energy =                       -117.8458979403598477
    Molecular point group: cs
  Basis Set: AUG-CC-PVDZ
    Blend: AUG-CC-PVDZ
  Basis Set: (AUG-CC-PVDZ AUX)
    Blend: AUG-CC-PVDZ-JKFIT
  @DF-RKS Final Energy:  -117.84589795114977
    Total Energy =                       -117.8458979511497660
  Basis Set: AUG-CC-PVDZ
    Blend: AUG-CC-PVDZ
  Basis Set: (AUG-CC-PVDZ AUX)
    Blend: AUG-CC-PVDZ-JKFIT
  Basis Set: AUG-CC-PVDZ
    Blend: AUG-CC-PVDZ
  Basis Set: (AUG-CC-PVDZ AUX)
    Blend: AUG-CC-PVDZ-JKFIT
  @DF-RKS Final Energy:  -117.84589795115083
    Total Energy =                       -117.8458979511508176
  Basis Set: AUG-CC-PVDZ
  @DF-RKS Final Energy:  -117.84591819616018
    Total Energy =                       -117.8459181961601843
  @DF-RKS Final Energy:  -117.84591762107391
    Total Energy =                       -117.8459176210739088
  @DF-RKS Final Energy:  -117.84590048474010
    Total Energy =                       -117.8459004847400990
  @DF-RKS Final Energy:  -117.84588705622011
    Total Energy =                       -117.8458870562201071
  @DF-RKS Final Energy:  -117.84589159918275
    Total Energy =                       -117.8458915991827496
  @DF-RKS Final Energy:  -117.84590560552647
    Total Energy =                       -117.8459056055264682
  @DF-RKS Final Energy:  -117.84591428041554
    Total Energy =                       -117.8459142804155420
  @DF-RKS Final Energy:  -117.84592030472383
    Total Energy =                       -117.8459203047238333
  @DF-RKS Final Energy:  -117.84591630355089
    Total Energy =                       -117.8459163035508936
  @DF-RKS Final Energy:  -117.84590066048375
    Total Energy =                       -117.8459006604837498
  @DF-RKS Final Energy:  -117.84590184275936
    Total Energy =                       -117.8459018427593605
  @DF-RKS Final Energy:  -117.84589697430910
    Total Energy =                       -117.8458969743090989
  @DF-RKS Final Energy:  -117.84592540532140
    Total Energy =                       -117.8459254053213954
  @DF-RKS Final Energy:  -117.84590942456285
    Total Energy =                       -117.8459094245628478
  @DF-RKS Final Energy:  -117.84591694450447
    Total Energy =                       -117.8459169445044665
  @DF-RKS Final Energy:  -117.84587966041947
    Total Energy =                       -117.8458796604194703
  @DF-RKS Final Energy:  -117.84587247910191
    Total Energy =                       -117.8458724791019279
  @DF-RKS Final Energy:  -117.84591636603420
    Total Energy =                       -117.8459163660342028
  @DF-RKS Final Energy:  -117.84590433778972
    Total Energy =                       -117.8459043377897189
  @DF-RKS Final Energy:  -117.84594394796075
    Total Energy =                       -117.8459439479607482
  @DF-RKS Final Energy:  -117.84591643698646
    Total Energy =                       -117.8459164369864567
  @DF-RKS Final Energy:  -117.84587240589926
    Total Energy =                       -117.8458724058992573
  @DF-RKS Final Energy:  -117.84587265510078
    Total Energy =                       -117.8458726551007771
  @DF-RKS Final Energy:  -117.84591617999772
    Total Energy =                       -117.8459161799977153
  @DF-RKS Final Energy:  -117.84589610842667
    Total Energy =                       -117.8458961084266718
  @DF-RKS Final Energy:  -117.84589577708310
    Total Energy =                       -117.8458957770831006
  @DF-RKS Final Energy:  -117.84589488864562
    Total Energy =                       -117.8458948886456170
  @DF-RKS Final Energy:  -117.84589757527418
    Total Energy =                       -117.8458975752741935
  @DF-RKS Final Energy:  -117.84589542773459
    Total Energy =                       -117.8458954277345896
  @DF-RKS Final Energy:  -117.84589654899214
    Total Energy =                       -117.8458965489921439
  @DF-RKS Final Energy:  -117.84589562226225
    Total Energy =                       -117.8458956222622476
  Basis Set: (AUG-CC-PVDZ AUX)
    Blend: AUG-CC-PVDZ-JKFIT
  Basis Set: AUG-CC-PVDZ
    Blend: AUG-CC-PVDZ
  Basis Set: (AUG-CC-PVDZ AUX)
    Blend: AUG-CC-PVDZ-JKFIT
  @DF-RKS Final Energy:  -117.84589731707629
    Total Energy =                       -117.8458973170762931
  Basis Set: AUG-CC-PVDZ
    Blend: AUG-CC-PVDZ
  Basis Set: (AUG-CC-PVDZ AUX)
    Blend: AUG-CC-PVDZ-JKFIT
    Molecular point group: c1
  Charge       = 0
  Multiplicity = 1
  Basis Set: AUG-CC-PVDZ
    Blend: AUG-CC-PVDZ
  Basis Set: (AUG-CC-PVDZ AUX)
    Blend: AUG-CC-PVDZ-JKFIT

    Orbital Energies [Eh]
    ---------------------

    Doubly Occupied:

       1A    -10.547899     2A    -10.547326     3A    -10.547318
       4A     -0.943774     5A     -0.677378     6A     -0.677364
       7A     -0.563694     8A     -0.526823     9A     -0.422300
      10A     -0.422274    11A     -0.348918    12A     -0.348878

  @DF-RKS Final Energy:  -117.84589484094460

   => Energetics <=

    Nuclear Repulsion Energy =             75.2814718714328848
    One-Electron Energy =                -305.7869940558288135
    Two-Electron Energy =                 121.5637801045793083
    DFT Exchange-Correlation Energy =      -8.9041527611279676
    Empirical Dispersion Energy =           0.0000000000000000
    VV10 Nonlocal Energy =                  0.0000000000000000
    Total Energy =                       -117.8458948409445952

  Dipole Moment: [D]
     X:     0.0003      Y:    -0.0004      Z:    -0.0006     Total:     0.0008

    Molecular point group: c1

    Geometry (in Angstrom), charge = 0, multiplicity = 1:

       Center              X                  Y                   Z               Mass
    ------------   -----------------  -----------------  -----------------  -----------------
         C            0.321531939855     0.813261460475     0.000000000000    12.000000000000
         C           -0.865048060145    -0.128168539525     0.000000000000    12.000000000000
         C            0.543531939855    -0.685078539525     0.000000000000    12.000000000000
         H            0.537951939855     1.360691460475    -0.920390000000     1.007825032230
         H            0.537951939855     1.360691460475     0.920390000000     1.007825032230
         H           -1.447418060145    -0.214488539525     0.919737951237     1.007825032230
         H           -1.447418060145    -0.214488539525    -0.920942048763     1.007825032230
         H            0.907830274543    -1.145679013968    -0.919767951237     1.007825032230
         H            0.910913605168    -1.146898065083     0.920972048763     1.007825032230

  Basis Set: AUG-CC-PVDZ
    Blend: AUG-CC-PVDZ
  Basis Set: (AUG-CC-PVDZ AUX)
    Blend: AUG-CC-PVDZ-JKFIT

  -Total Gradient:
     Atom            X                  Y                   Z
    ------   -----------------  -----------------  -----------------
       1        0.001638378409     0.004101299106     0.000006528829
       2       -0.004315409035    -0.000594086777     0.000461843186
       3        0.002770500045    -0.003467601850    -0.001281086029
       4        0.000877103437     0.002164803335    -0.003104149035
       5        0.000880281687     0.002177911174     0.003101236051
       6       -0.002135268106    -0.000310907797     0.002824987780
       7       -0.002492887290    -0.000320645704    -0.003398064127
       8        0.001145521685    -0.001496673704    -0.002403608715
       9        0.001869896875    -0.002225021736     0.003790966352

  Vibration                       7                   8                   9
  Freq [cm^-1]                 749.1513            757.5043            864.2336
  Irrep                          App                 App                 App
  Reduced mass [u]              1.0219              1.0233              1.0437
  Force const [mDyne/A]         0.3379              0.3460              0.4593

  Vibration                       10                  11                  12
  Freq [cm^-1]                 887.3698            905.2935           1021.3014
  Irrep                           Ap                  Ap                  Ap
  Reduced mass [u]              2.5220              4.0417              1.5452
  Force const [mDyne/A]         1.1701              1.9516              0.9496

  Vibration                       13                  14                  15
  Freq [cm^-1]                1029.7670           1091.5094           1149.0537
  Irrep                           Ap                  Ap                 App
  Reduced mass [u]              1.3342              1.2722              1.0099
  Force const [mDyne/A]         0.8336              0.8930              0.7856

  Vibration                       16                  17                  18
  Freq [cm^-1]                1197.6999           1200.1973           1213.0876
  Irrep                          App                 App                  Ap
  Reduced mass [u]              1.4412              1.4473              2.4699
  Force const [mDyne/A]         1.2181              1.2284              2.1415

  Vibration                       19                  20                  21
  Freq [cm^-1]                1455.1592           1475.0947           1524.4148
  Irrep                           Ap                  Ap                  Ap
  Reduced mass [u]              1.1015              1.0940              1.3676
  Force const [mDyne/A]         1.3742              1.4025              1.8725

  Vibration                       22                  23                  24
  Freq [cm^-1]                3121.2509           3126.3722           3133.1988
  Irrep                           Ap                  Ap                  Ap
  Reduced mass [u]              1.0503              1.0511              1.0641
  Force const [mDyne/A]         6.0289              6.0529              6.1546

  Vibration                       25                  26                  27
  Freq [cm^-1]                3209.4471           3209.7770           3227.8006
  Irrep                          App                 App                 App
  Reduced mass [u]              1.1213              1.1212              1.1164
  Force const [mDyne/A]         6.8051              6.8056              6.8533

  ==> Thermochemistry Components <==

  Entropy, S
    Electronic S            0.000 [cal/(mol K)]        0.000 [J/(mol K)]       0.00000000 [mEh/K] (multiplicity = 1)
    Translational S        37.135 [cal/(mol K)]      155.375 [J/(mol K)]       0.05917914 [mEh/K] (mol. weight = 42.0470 [u], P = 101325.00 [Pa])
    Rotational S           21.699 [cal/(mol K)]       90.789 [J/(mol K)]       0.03457982 [mEh/K] (symmetry no. = 1)
    Vibrational S           1.387 [cal/(mol K)]        5.802 [J/(mol K)]       0.00220986 [mEh/K]
  Total S                  60.221 [cal/(mol K)]      251.966 [J/(mol K)]       0.09596882 [mEh/K]
  Correction S              0.000 [cal/(mol K)]        0.000 [J/(mol K)]       0.00000000 [mEh/K]

  Constant volume heat capacity, Cv
    Electronic Cv           0.000 [cal/(mol K)]        0.000 [J/(mol K)]       0.00000000 [mEh/K]
    Translational Cv        2.981 [cal/(mol K)]       12.472 [J/(mol K)]       0.00475022 [mEh/K]
    Rotational Cv           2.981 [cal/(mol K)]       12.472 [J/(mol K)]       0.00475022 [mEh/K]
    Vibrational Cv          5.097 [cal/(mol K)]       21.325 [J/(mol K)]       0.00812239 [mEh/K]
  Total Cv                 11.058 [cal/(mol K)]       46.269 [J/(mol K)]       0.01762282 [mEh/K]
  Correction Cv             0.000 [cal/(mol K)]        0.000 [J/(mol K)]       0.00000000 [mEh/K]

  Constant pressure heat capacity, Cp
    Electronic Cp           0.000 [cal/(mol K)]        0.000 [J/(mol K)]       0.00000000 [mEh/K]
    Translational Cp        4.968 [cal/(mol K)]       20.786 [J/(mol K)]       0.00791703 [mEh/K]
    Rotational Cp           2.981 [cal/(mol K)]       12.472 [J/(mol K)]       0.00475022 [mEh/K]
    Vibrational Cp          5.097 [cal/(mol K)]       21.325 [J/(mol K)]       0.00812239 [mEh/K]
  Total Cp                 13.046 [cal/(mol K)]       54.583 [J/(mol K)]       0.02078963 [mEh/K]
  Correction Cp             0.000 [cal/(mol K)]        0.000 [J/(mol K)]       0.00000000 [mEh/K]

  ==> Thermochemistry Energy Analysis <==

  Raw electronic energy, E0
  Total E0, Electronic energy at well bottom at 0 [K]                 -117.84589795 [Eh]

  Zero-point energy, ZPE_vib = Sum_i nu_i / 2
    Electronic ZPE          0.000 [kcal/mol]        0.000 [kJ/mol]       0.00000000 [Eh]
    Translational ZPE       0.000 [kcal/mol]        0.000 [kJ/mol]       0.00000000 [Eh]
    Rotational ZPE          0.000 [kcal/mol]        0.000 [kJ/mol]       0.00000000 [Eh]
    Vibrational ZPE        50.819 [kcal/mol]      212.628 [kJ/mol]       0.08098586 [Eh]       17774.342 [cm^-1]
  Correction ZPE           50.819 [kcal/mol]      212.628 [kJ/mol]       0.08098586 [Eh]       17774.342 [cm^-1]
  Total ZPE, Electronic energy at 0 [K]                               -117.76491209 [Eh]

  Thermal Energy, E (includes ZPE)
    Electronic E            0.000 [kcal/mol]        0.000 [kJ/mol]       0.00000000 [Eh]
    Translational E         0.889 [kcal/mol]        3.718 [kJ/mol]       0.00141628 [Eh]
    Rotational E            0.889 [kcal/mol]        3.718 [kJ/mol]       0.00141628 [Eh]
    Vibrational E          51.156 [kcal/mol]      214.035 [kJ/mol]       0.08152163 [Eh]
  Correction E             52.933 [kcal/mol]      221.472 [kJ/mol]       0.08435418 [Eh]
  Total E, Electronic energy at  298.15 [K]                           -117.76154377 [Eh]

  Enthalpy, H_trans = E_trans + k_B * T
    Electronic H            0.000 [kcal/mol]        0.000 [kJ/mol]       0.00000000 [Eh]
    Translational H         1.481 [kcal/mol]        6.197 [kJ/mol]       0.00236046 [Eh]
    Rotational H            0.889 [kcal/mol]        3.718 [kJ/mol]       0.00141628 [Eh]
    Vibrational H          51.156 [kcal/mol]      214.035 [kJ/mol]       0.08152163 [Eh]
  Correction H             53.526 [kcal/mol]      223.951 [kJ/mol]       0.08529836 [Eh]
  Total H, Enthalpy at  298.15 [K]                                    -117.76059959 [Eh]

  Gibbs free energy, G = H - T * S
    Electronic G            0.000 [kcal/mol]        0.000 [kJ/mol]       0.00000000 [Eh]
    Translational G        -9.591 [kcal/mol]      -40.128 [kJ/mol]      -0.01528380 [Eh]
    Rotational G           -5.581 [kcal/mol]      -23.350 [kJ/mol]      -0.00889370 [Eh]
    Vibrational G          50.742 [kcal/mol]      212.305 [kJ/mol]       0.08086276 [Eh]
  Correction G             35.571 [kcal/mol]      148.827 [kJ/mol]       0.05668526 [Eh]
  Total G, Free enthalpy at  298.15 [K]                               -117.78921269 [Eh]

*** Psi4 exiting successfully. Buy a developer a beer!
