                               Psi4 1.3.2 release

  ==> Input File <==

--------------------------------------------------------------------------
set basis  cc-pVTZ
molecule {
0 1
   O        0.00000        0.00000        0.49152
   C        0.00000        0.00000       -0.65516
}
energy('CCSD')
frequencies('CCSD')
--------------------------------------------------------------------------

    Molecular point group: c2v
  Charge       = 0
  Multiplicity = 1
  Basis Set: CC-PVTZ
    Blend: CC-PVTZ
  @RHF Final Energy:  -112.77738909059802
    Total Energy =                       -112.7773890905980352
      * MP2 total energy                      = -113.160035994568204
      * CCSD total energy                     = -113.162235960742137
    Molecular point group: c2v
  Basis Set: CC-PVTZ
    Blend: CC-PVTZ
  @RHF Final Energy:  -112.77738909059802
    Total Energy =                       -112.7773890905980210
      * MP2 total energy                      = -113.160035994877902
      * CCSD total energy                     = -113.162235964138787
  Basis Set: CC-PVTZ
    Blend: CC-PVTZ
  @RHF Final Energy:  -112.77738909059802
    Total Energy =                       -112.7773890905980210
      * MP2 total energy                      = -113.160035994877902
      * CCSD total energy                     = -113.162235965045411
  Basis Set: CC-PVTZ
    Blend: CC-PVTZ
  @RHF Final Energy:  -112.77758898116190
    Total Energy =                       -112.7775889811618981
      * MP2 total energy                      = -113.160080901017466
      * CCSD total energy                     = -113.162325969309322
  Basis Set: CC-PVTZ
    Blend: CC-PVTZ
  @RHF Final Energy:  -112.77718503821164
    Total Energy =                       -112.7771850382116412
      * MP2 total energy                      = -113.159987103523832
      * CCSD total energy                     = -113.162141863442386
  Basis Set: CC-PVTZ
    Blend: CC-PVTZ
  @RHF Final Energy:  -112.77738900160438
    Total Energy =                       -112.7773890016043765
      * MP2 total energy                      = -113.160035974211127
      * CCSD total energy                     = -113.162235924483127
    Molecular point group: cs
  Charge       = 0
  Multiplicity = 1
  Basis Set: CC-PVTZ
    Blend: CC-PVTZ

    Orbital Energies [Eh]
    ---------------------

    Doubly Occupied:

       1Ap   -20.666419     2Ap   -11.367806     3Ap    -1.508537
       4Ap    -0.801969     5Ap    -0.631017     1App   -0.631017
       6Ap    -0.555619

  @RHF Final Energy:  -112.77738900160453

   => Energetics <=

    Nuclear Repulsion Energy =             22.1513379928885605
    One-Electron Energy =                -197.5326844638164516
    Two-Electron Energy =                  62.6039574693233618
    Total Energy =                       -112.7773890016045328

  Dipole Moment: [D]
     X:     0.0000      Y:     0.0003      Z:    -0.3359     Total:     0.3359

      * MP2 total energy                      = -113.160035974211297
      * CCSD total energy                     = -113.162235924483298
    Molecular point group: cs

    Geometry (in Bohr), charge = 0, multiplicity = 1:

       Center              X                  Y                   Z
    ------------   -----------------  -----------------  -----------------
         O            0.000000000000    -0.000818521498     0.928844906150
         C            0.000000000000     0.001091015123    -1.238066247390

  -Total gradient:
     Atom            X                  Y                   Z
    ------   -----------------  -----------------  -----------------
       1        0.000000000000    -0.000042484249     0.048210435419
       2        0.000000000000     0.000042484249    -0.048210435418

  Vibration                       4                   5                   6
  Freq [cm^-1]                 292.8278            292.8278           2081.0667
  Irrep                           B1                  B2                  A1
  Reduced mass [u]             13.4388             13.4388             13.4388
  Force const [mDyne/A]         0.6789              0.6789             34.2911

  ==> Thermochemistry Components <==

  Entropy, S
    Electronic S            0.000 [cal/(mol K)]        0.000 [J/(mol K)]       0.00000000 [mEh/K] (multiplicity = 1)
    Translational S        35.923 [cal/(mol K)]      150.302 [J/(mol K)]       0.05724692 [mEh/K] (mol. weight = 27.9949 [u], P = 101325.00 [Pa])
    Rotational S           11.343 [cal/(mol K)]       47.458 [J/(mol K)]       0.01807582 [mEh/K] (symmetry no. = 1)
    Vibrational S           2.916 [cal/(mol K)]       12.201 [J/(mol K)]       0.00464707 [mEh/K]
  Total S                  50.182 [cal/(mol K)]      209.961 [J/(mol K)]       0.07996982 [mEh/K]
  Correction S              0.000 [cal/(mol K)]        0.000 [J/(mol K)]       0.00000000 [mEh/K]

  Constant volume heat capacity, Cv
    Electronic Cv           0.000 [cal/(mol K)]        0.000 [J/(mol K)]       0.00000000 [mEh/K]
    Translational Cv        2.981 [cal/(mol K)]       12.472 [J/(mol K)]       0.00475022 [mEh/K]
    Rotational Cv           1.987 [cal/(mol K)]        8.314 [J/(mol K)]       0.00316681 [mEh/K]
    Vibrational Cv          3.383 [cal/(mol K)]       14.154 [J/(mol K)]       0.00539102 [mEh/K]
  Total Cv                  8.351 [cal/(mol K)]       34.940 [J/(mol K)]       0.01330805 [mEh/K]
  Correction Cv             0.000 [cal/(mol K)]        0.000 [J/(mol K)]       0.00000000 [mEh/K]

  Constant pressure heat capacity, Cp
    Electronic Cp           0.000 [cal/(mol K)]        0.000 [J/(mol K)]       0.00000000 [mEh/K]
    Translational Cp        4.968 [cal/(mol K)]       20.786 [J/(mol K)]       0.00791703 [mEh/K]
    Rotational Cp           1.987 [cal/(mol K)]        8.314 [J/(mol K)]       0.00316681 [mEh/K]
    Vibrational Cp          3.383 [cal/(mol K)]       14.154 [J/(mol K)]       0.00539102 [mEh/K]
  Total Cp                 10.338 [cal/(mol K)]       43.255 [J/(mol K)]       0.01647486 [mEh/K]
  Correction Cp             0.000 [cal/(mol K)]        0.000 [J/(mol K)]       0.00000000 [mEh/K]

  ==> Thermochemistry Energy Analysis <==

  Raw electronic energy, E0
  Total E0, Electronic energy at well bottom at 0 [K]                 -113.16223597 [Eh]

  Zero-point energy, ZPE_vib = Sum_i nu_i / 2
    Electronic ZPE          0.000 [kcal/mol]        0.000 [kJ/mol]       0.00000000 [Eh]
    Translational ZPE       0.000 [kcal/mol]        0.000 [kJ/mol]       0.00000000 [Eh]
    Rotational ZPE          0.000 [kcal/mol]        0.000 [kJ/mol]       0.00000000 [Eh]
    Vibrational ZPE         3.812 [kcal/mol]       15.951 [kJ/mol]       0.00607524 [Eh]        1333.361 [cm^-1]
  Correction ZPE            3.812 [kcal/mol]       15.951 [kJ/mol]       0.00607524 [Eh]        1333.361 [cm^-1]
  Total ZPE, Electronic energy at 0 [K]                               -113.15616072 [Eh]

  Thermal Energy, E (includes ZPE)
    Electronic E            0.000 [kcal/mol]        0.000 [kJ/mol]       0.00000000 [Eh]
    Translational E         0.889 [kcal/mol]        3.718 [kJ/mol]       0.00141628 [Eh]
    Rotational E            0.592 [kcal/mol]        2.479 [kJ/mol]       0.00094418 [Eh]
    Vibrational E           4.351 [kcal/mol]       18.205 [kJ/mol]       0.00693405 [Eh]
  Correction E              5.832 [kcal/mol]       24.403 [kJ/mol]       0.00929451 [Eh]
  Total E, Electronic energy at  298.15 [K]                           -113.15294146 [Eh]

  Enthalpy, H_trans = E_trans + k_B * T
    Electronic H            0.000 [kcal/mol]        0.000 [kJ/mol]       0.00000000 [Eh]
    Translational H         1.481 [kcal/mol]        6.197 [kJ/mol]       0.00236046 [Eh]
    Rotational H            0.592 [kcal/mol]        2.479 [kJ/mol]       0.00094418 [Eh]
    Vibrational H           4.351 [kcal/mol]       18.205 [kJ/mol]       0.00693405 [Eh]
  Correction H              6.425 [kcal/mol]       26.882 [kJ/mol]       0.01023869 [Eh]
  Total H, Enthalpy at  298.15 [K]                                    -113.15199727 [Eh]

  Gibbs free energy, G = H - T * S
    Electronic G            0.000 [kcal/mol]        0.000 [kJ/mol]       0.00000000 [Eh]
    Translational G        -9.229 [kcal/mol]      -38.615 [kJ/mol]      -0.01470771 [Eh]
    Rotational G           -2.789 [kcal/mol]      -11.671 [kJ/mol]      -0.00444512 [Eh]
    Vibrational G           3.482 [kcal/mol]       14.568 [kJ/mol]       0.00554852 [Eh]
  Correction G             -8.537 [kcal/mol]      -35.718 [kJ/mol]      -0.01360431 [Eh]
  Total G, Free enthalpy at  298.15 [K]                               -113.17584028 [Eh]

*** Psi4 exiting successfully. Buy a developer a beer!
