                               Psi4 1.3.2 release

  ==> Input File <==

--------------------------------------------------------------------------
set basis  aug-cc-pVDZ
molecule {
0 1
   O        0.00000        0.00000       -0.06797
   H        0.74903        0.00000        0.53936
   H       -0.74903        0.00000        0.53936
}
energy('scf')
frequencies('scf')

--------------------------------------------------------------------------

    Molecular point group: c2v
  Charge       = 0
  Multiplicity = 1
  Basis Set: AUG-CC-PVDZ
    Blend: AUG-CC-PVDZ
  Basis Set: (AUG-CC-PVDZ AUX)
    Blend: AUG-CC-PVDZ-JKFIT
  @DF-RHF Final Energy:   -76.04063731610427
    Total Energy =                        -76.0406373161042666
    Molecular point group: c2v
  Basis Set: AUG-CC-PVDZ
    Blend: AUG-CC-PVDZ
  Basis Set: (AUG-CC-PVDZ AUX)
    Blend: AUG-CC-PVDZ-JKFIT
  @DF-RHF Final Energy:   -76.04063731614366
    Total Energy =                        -76.0406373161436591
  Basis Set: AUG-CC-PVDZ
    Blend: AUG-CC-PVDZ
  Basis Set: (AUG-CC-PVDZ AUX)
    Blend: AUG-CC-PVDZ-JKFIT

  -Total Gradient:
     Atom            X                  Y                   Z
    ------   -----------------  -----------------  -----------------
       1        0.000000000000    -0.000000000000    -0.034844341893
       2        0.012618365659     0.000000000000     0.017422170947
       3       -0.012618365659    -0.000000000000     0.017422170947

  Charge       = 0
  Multiplicity = 1
  Basis Set: AUG-CC-PVDZ
    Blend: AUG-CC-PVDZ
  Basis Set: (AUG-CC-PVDZ AUX)
    Blend: AUG-CC-PVDZ-JKFIT

    Orbital Energies [Eh]
    ---------------------

    Doubly Occupied:

       1A1   -20.579604     2A1    -1.354877     1B1    -0.710331
       3A1    -0.589396     1B2    -0.509597

  @DF-RHF Final Energy:   -76.04063731614366

   => Energetics <=

    Nuclear Repulsion Energy =              9.1334334609951409
    One-Electron Energy =                -122.8605308570024732
    Two-Electron Energy =                  37.6864600798636857
    Total Energy =                        -76.0406373161436591

  Dipole Moment: [D]
     X:     0.0000      Y:     0.0000      Z:     2.0461     Total:     2.0461

    Molecular point group: c2v
  Basis Set: AUG-CC-PVDZ
    Blend: AUG-CC-PVDZ
  Basis Set: (AUG-CC-PVDZ AUX)
    Blend: AUG-CC-PVDZ-JKFIT
  Basis Set: (AUG-CC-PVDZ AUX)
    Blend: AUG-CC-PVDZ-JKFIT
    Molecular point group: c2v

    Geometry (in Angstrom), charge = 0, multiplicity = 1:

       Center              X                  Y                   Z               Mass
    ------------   -----------------  -----------------  -----------------  -----------------
         O            0.000000000000     0.000000000000    -0.067969259994    15.994914619570
         H            0.749030000000     0.000000000000     0.539360740006     1.007825032230
         H           -0.749030000000    -0.000000000000     0.539360740006     1.007825032230

  Basis Set: AUG-CC-PVDZ
    Blend: AUG-CC-PVDZ
  Basis Set: (AUG-CC-PVDZ AUX)
    Blend: AUG-CC-PVDZ-JKFIT

  Vibration                       4                   5                   6
  Freq [cm^-1]                 483.4642            558.6413            669.4585
  Irrep                           A2                  B1                  B2
  Reduced mass [u]              1.0078              1.0476              1.1259
  Force const [mDyne/A]         0.1388              0.1926              0.2973

  IR activ [km/mol]             0.0000             97.6452             267.9347

  Vibration                       7                   8                   9
  Freq [cm^-1]                1829.3232           3862.5362           3935.0662
  Irrep                           A1                  A1                  B1
  Reduced mass [u]              1.0805              1.0472              1.0801
  Force const [mDyne/A]         2.1304              9.2048              9.8539

  IR activ [km/mol]            85.9133             13.9537             69.6614

  ==> Thermochemistry Components <==

  Entropy, S
    Electronic S            0.000 [cal/(mol K)]        0.000 [J/(mol K)]       0.00000000 [mEh/K] (multiplicity = 1)
    Translational S        34.608 [cal/(mol K)]      144.801 [J/(mol K)]       0.05515177 [mEh/K] (mol. weight = 18.0106 [u], P = 101325.00 [Pa])
    Rotational S           10.508 [cal/(mol K)]       43.968 [J/(mol K)]       0.01674635 [mEh/K] (symmetry no. = 2)
    Vibrational S           1.575 [cal/(mol K)]        6.588 [J/(mol K)]       0.00250929 [mEh/K]
  Total S                  46.691 [cal/(mol K)]      195.357 [J/(mol K)]       0.07440742 [mEh/K]
  Correction S              0.000 [cal/(mol K)]        0.000 [J/(mol K)]       0.00000000 [mEh/K]

  Constant volume heat capacity, Cv
    Electronic Cv           0.000 [cal/(mol K)]        0.000 [J/(mol K)]       0.00000000 [mEh/K]
    Translational Cv        2.981 [cal/(mol K)]       12.472 [J/(mol K)]       0.00475022 [mEh/K]
    Rotational Cv           2.981 [cal/(mol K)]       12.472 [J/(mol K)]       0.00475022 [mEh/K]
    Vibrational Cv          3.319 [cal/(mol K)]       13.887 [J/(mol K)]       0.00528928 [mEh/K]
  Total Cv                  9.281 [cal/(mol K)]       38.830 [J/(mol K)]       0.01478972 [mEh/K]
  Correction Cv             0.000 [cal/(mol K)]        0.000 [J/(mol K)]       0.00000000 [mEh/K]

  Constant pressure heat capacity, Cp
    Electronic Cp           0.000 [cal/(mol K)]        0.000 [J/(mol K)]       0.00000000 [mEh/K]
    Translational Cp        4.968 [cal/(mol K)]       20.786 [J/(mol K)]       0.00791703 [mEh/K]
    Rotational Cp           2.981 [cal/(mol K)]       12.472 [J/(mol K)]       0.00475022 [mEh/K]
    Vibrational Cp          3.319 [cal/(mol K)]       13.887 [J/(mol K)]       0.00528928 [mEh/K]
  Total Cp                 11.268 [cal/(mol K)]       47.145 [J/(mol K)]       0.01795653 [mEh/K]
  Correction Cp             0.000 [cal/(mol K)]        0.000 [J/(mol K)]       0.00000000 [mEh/K]

  ==> Thermochemistry Energy Analysis <==

  Raw electronic energy, E0
  Total E0, Electronic energy at well bottom at 0 [K]                  -76.04063732 [Eh]

  Zero-point energy, ZPE_vib = Sum_i nu_i / 2
    Electronic ZPE          0.000 [kcal/mol]        0.000 [kJ/mol]       0.00000000 [Eh]
    Translational ZPE       0.000 [kcal/mol]        0.000 [kJ/mol]       0.00000000 [Eh]
    Rotational ZPE          0.000 [kcal/mol]        0.000 [kJ/mol]       0.00000000 [Eh]
    Vibrational ZPE        16.209 [kcal/mol]       67.819 [kJ/mol]       0.02583098 [Eh]        5669.245 [cm^-1]
  Correction ZPE           16.209 [kcal/mol]       67.819 [kJ/mol]       0.02583098 [Eh]        5669.245 [cm^-1]
  Total ZPE, Electronic energy at 0 [K]                                -76.01480634 [Eh]

  Thermal Energy, E (includes ZPE)
    Electronic E            0.000 [kcal/mol]        0.000 [kJ/mol]       0.00000000 [Eh]
    Translational E         0.889 [kcal/mol]        3.718 [kJ/mol]       0.00141628 [Eh]
    Rotational E            0.889 [kcal/mol]        3.718 [kJ/mol]       0.00141628 [Eh]
    Vibrational E          16.553 [kcal/mol]       69.257 [kJ/mol]       0.02637859 [Eh]
  Correction E             18.330 [kcal/mol]       76.694 [kJ/mol]       0.02921114 [Eh]
  Total E, Electronic energy at  298.15 [K]                            -76.01142617 [Eh]

  Enthalpy, H_trans = E_trans + k_B * T
    Electronic H            0.000 [kcal/mol]        0.000 [kJ/mol]       0.00000000 [Eh]
    Translational H         1.481 [kcal/mol]        6.197 [kJ/mol]       0.00236046 [Eh]
    Rotational H            0.889 [kcal/mol]        3.718 [kJ/mol]       0.00141628 [Eh]
    Vibrational H          16.553 [kcal/mol]       69.257 [kJ/mol]       0.02637859 [Eh]
  Correction H             18.923 [kcal/mol]       79.173 [kJ/mol]       0.03015533 [Eh]
  Total H, Enthalpy at  298.15 [K]                                     -76.01048199 [Eh]

  Gibbs free energy, G = H - T * S
    Electronic G            0.000 [kcal/mol]        0.000 [kJ/mol]       0.00000000 [Eh]
    Translational G        -8.837 [kcal/mol]      -36.975 [kJ/mol]      -0.01408304 [Eh]
    Rotational G           -2.244 [kcal/mol]       -9.390 [kJ/mol]      -0.00357665 [Eh]
    Vibrational G          16.083 [kcal/mol]       67.293 [kJ/mol]       0.02563045 [Eh]
  Correction G              5.002 [kcal/mol]       20.927 [kJ/mol]       0.00797076 [Eh]
  Total G, Free enthalpy at  298.15 [K]                                -76.03266656 [Eh]

*** Psi4 exiting successfully. Buy a developer a beer!
