                               Psi4 1.3.2 release

  ==> Input File <==

--------------------------------------------------------------------------
set basis  aug-cc-pVDZ
molecule {
0 1
   O        0.00000        0.00000       -0.06797
   H        0.74903        0.00000        0.53936
   H       -0.74903        0.00000        0.53936
}
energy('CCSD')
frequencies('CCSD')

--------------------------------------------------------------------------

    Molecular point group: c2v
  Charge       = 0
  Multiplicity = 1
  Basis Set: AUG-CC-PVDZ
    Blend: AUG-CC-PVDZ
  @RHF Final Energy:   -76.04065813659534
    Total Energy =                        -76.0406581365953400
      * MP2 total energy                      =  -76.263282840040631
      * CCSD total energy                     =  -76.270734332933614
    Molecular point group: c2v
  Basis Set: AUG-CC-PVDZ
    Blend: AUG-CC-PVDZ
  @RHF Final Energy:   -76.04065813659527
    Total Energy =                        -76.0406581365952547
      * MP2 total energy                      =  -76.263282840127488
      * CCSD total energy                     =  -76.270734333488150
  Basis Set: AUG-CC-PVDZ
    Blend: AUG-CC-PVDZ
  @RHF Final Energy:   -76.04065813659524
    Total Energy =                        -76.0406581365952263
      * MP2 total energy                      =  -76.263282840127459
      * CCSD total energy                     =  -76.270734333040167
  Basis Set: AUG-CC-PVDZ
    Blend: AUG-CC-PVDZ
  @RHF Final Energy:   -76.04052442235589
    Total Energy =                        -76.0405244223558867
      * MP2 total energy                      =  -76.263271908880682
      * CCSD total energy                     =  -76.270714416433648
  Basis Set: AUG-CC-PVDZ
    Blend: AUG-CC-PVDZ
  @RHF Final Energy:   -76.04078476032812
    Total Energy =                        -76.0407847603281226
      * MP2 total energy                      =  -76.263287231787459
      * CCSD total energy                     =  -76.270747627738174
  Basis Set: AUG-CC-PVDZ
    Blend: AUG-CC-PVDZ
  @RHF Final Energy:   -76.04074195251600
    Total Energy =                        -76.0407419525160151
      * MP2 total energy                      =  -76.263251828970056
      * CCSD total energy                     =  -76.270709049491387
  Basis Set: AUG-CC-PVDZ
    Blend: AUG-CC-PVDZ
  @RHF Final Energy:   -76.04056412968028
    Total Energy =                        -76.0405641296802912
      * MP2 total energy                      =  -76.263303972711370
      * CCSD total energy                     =  -76.270749719152391
    Molecular point group: cs
  Charge       = 0
  Multiplicity = 1
  Basis Set: AUG-CC-PVDZ
    Blend: AUG-CC-PVDZ

    Orbital Energies [Eh]
    ---------------------

    Doubly Occupied:

       1Ap   -20.579605     2Ap    -1.354878     3Ap    -0.710330
       4Ap    -0.589397     1App   -0.509605

  @RHF Final Energy:   -76.04065081088493

   => Energetics <=

    Nuclear Repulsion Energy =              9.1334682877742281
    One-Electron Energy =                -122.8606060035238556
    Two-Electron Energy =                  37.6864869048647009
    Total Energy =                        -76.0406508108849266

  Dipole Moment: [D]
     X:     0.0034      Y:     0.0000      Z:     2.0460     Total:     2.0460

      * MP2 total energy                      =  -76.263275461139301
      * CCSD total energy                     =  -76.270727035958885
    Molecular point group: cs

    Geometry (in Bohr), charge = 0, multiplicity = 1:

       Center              X                  Y                   Z
    ------------   -----------------  -----------------  -----------------
         O           -0.000332326610     0.000000000000    -0.128443286339
         H            1.418098691984     0.000000000000     1.021382326257
         H           -1.412824427519     0.000000000000     1.017105836614

  -Total gradient:
     Atom            X                  Y                   Z
    ------   -----------------  -----------------  -----------------
       1       -0.003111272699     0.000000000000    -0.004427250510
       2       -0.001339573294     0.000000000000     0.003465951923
       3        0.004450845994     0.000000000000     0.000961298587

  Vibration                       7                   8                   9
  Freq [cm^-1]                1671.0370           3829.9253           3927.5957
  Irrep                           A1                  A1                  B1
  Reduced mass [u]              1.0810              1.0467              1.0793
  Force const [mDyne/A]         1.7785              9.0460              9.8093

  ==> Thermochemistry Components <==

  Entropy, S
    Electronic S            0.000 [cal/(mol K)]        0.000 [J/(mol K)]       0.00000000 [mEh/K] (multiplicity = 1)
    Translational S        34.608 [cal/(mol K)]      144.801 [J/(mol K)]       0.05515177 [mEh/K] (mol. weight = 18.0106 [u], P = 101325.00 [Pa])
    Rotational S           10.508 [cal/(mol K)]       43.968 [J/(mol K)]       0.01674635 [mEh/K] (symmetry no. = 2)
    Vibrational S           0.006 [cal/(mol K)]        0.024 [J/(mol K)]       0.00000904 [mEh/K]
  Total S                  45.122 [cal/(mol K)]      188.792 [J/(mol K)]       0.07190716 [mEh/K]
  Correction S              0.000 [cal/(mol K)]        0.000 [J/(mol K)]       0.00000000 [mEh/K]

  Constant volume heat capacity, Cv
    Electronic Cv           0.000 [cal/(mol K)]        0.000 [J/(mol K)]       0.00000000 [mEh/K]
    Translational Cv        2.981 [cal/(mol K)]       12.472 [J/(mol K)]       0.00475022 [mEh/K]
    Rotational Cv           2.981 [cal/(mol K)]       12.472 [J/(mol K)]       0.00475022 [mEh/K]
    Vibrational Cv          0.041 [cal/(mol K)]        0.170 [J/(mol K)]       0.00006486 [mEh/K]
  Total Cv                  6.002 [cal/(mol K)]       25.114 [J/(mol K)]       0.00956529 [mEh/K]
  Correction Cv             0.000 [cal/(mol K)]        0.000 [J/(mol K)]       0.00000000 [mEh/K]

  Constant pressure heat capacity, Cp
    Electronic Cp           0.000 [cal/(mol K)]        0.000 [J/(mol K)]       0.00000000 [mEh/K]
    Translational Cp        4.968 [cal/(mol K)]       20.786 [J/(mol K)]       0.00791703 [mEh/K]
    Rotational Cp           2.981 [cal/(mol K)]       12.472 [J/(mol K)]       0.00475022 [mEh/K]
    Vibrational Cp          0.041 [cal/(mol K)]        0.170 [J/(mol K)]       0.00006486 [mEh/K]
  Total Cp                  7.990 [cal/(mol K)]       33.428 [J/(mol K)]       0.01273210 [mEh/K]
  Correction Cp             0.000 [cal/(mol K)]        0.000 [J/(mol K)]       0.00000000 [mEh/K]

  ==> Thermochemistry Energy Analysis <==

  Raw electronic energy, E0
  Total E0, Electronic energy at well bottom at 0 [K]                  -76.27073433 [Eh]

  Zero-point energy, ZPE_vib = Sum_i nu_i / 2
    Electronic ZPE          0.000 [kcal/mol]        0.000 [kJ/mol]       0.00000000 [Eh]
    Translational ZPE       0.000 [kcal/mol]        0.000 [kJ/mol]       0.00000000 [Eh]
    Rotational ZPE          0.000 [kcal/mol]        0.000 [kJ/mol]       0.00000000 [Eh]
    Vibrational ZPE        13.479 [kcal/mol]       56.395 [kJ/mol]       0.02147984 [Eh]        4714.279 [cm^-1]
  Correction ZPE           13.479 [kcal/mol]       56.395 [kJ/mol]       0.02147984 [Eh]        4714.279 [cm^-1]
  Total ZPE, Electronic energy at 0 [K]                                -76.24925450 [Eh]

  Thermal Energy, E (includes ZPE)
    Electronic E            0.000 [kcal/mol]        0.000 [kJ/mol]       0.00000000 [Eh]
    Translational E         0.889 [kcal/mol]        3.718 [kJ/mol]       0.00141628 [Eh]
    Rotational E            0.889 [kcal/mol]        3.718 [kJ/mol]       0.00141628 [Eh]
    Vibrational E          13.480 [kcal/mol]       56.402 [kJ/mol]       0.02148223 [Eh]
  Correction E             15.258 [kcal/mol]       63.838 [kJ/mol]       0.02431479 [Eh]
  Total E, Electronic energy at  298.15 [K]                            -76.24641955 [Eh]

  Enthalpy, H_trans = E_trans + k_B * T
    Electronic H            0.000 [kcal/mol]        0.000 [kJ/mol]       0.00000000 [Eh]
    Translational H         1.481 [kcal/mol]        6.197 [kJ/mol]       0.00236046 [Eh]
    Rotational H            0.889 [kcal/mol]        3.718 [kJ/mol]       0.00141628 [Eh]
    Vibrational H          13.480 [kcal/mol]       56.402 [kJ/mol]       0.02148223 [Eh]
  Correction H             15.850 [kcal/mol]       66.317 [kJ/mol]       0.02525897 [Eh]
  Total H, Enthalpy at  298.15 [K]                                     -76.24547536 [Eh]

  Gibbs free energy, G = H - T * S
    Electronic G            0.000 [kcal/mol]        0.000 [kJ/mol]       0.00000000 [Eh]
    Translational G        -8.837 [kcal/mol]      -36.975 [kJ/mol]      -0.01408304 [Eh]
    Rotational G           -2.244 [kcal/mol]       -9.390 [kJ/mol]      -0.00357665 [Eh]
    Vibrational G          13.479 [kcal/mol]       56.395 [kJ/mol]       0.02147954 [Eh]
  Correction G              2.397 [kcal/mol]       10.029 [kJ/mol]       0.00381985 [Eh]
  Total G, Free enthalpy at  298.15 [K]                                -76.26691448 [Eh]

*** Psi4 exiting successfully. Buy a developer a beer!
