                               Psi4 1.3.2 release

  ==> Input File <==

--------------------------------------------------------------------------
set basis  cc-pVDZ
molecule {
0 1
   O        0.00000        0.00000       -0.06797
   H        0.74903        0.00000        0.53936
   H       -0.74903        0.00000        0.53936
}
energy('m06-2x')
frequencies('m06-2x')

--------------------------------------------------------------------------

    Molecular point group: c2v
  Charge       = 0
  Multiplicity = 1
  Basis Set: CC-PVDZ
    Blend: CC-PVDZ
  Basis Set: (CC-PVDZ AUX)
    Blend: CC-PVDZ-JKFIT
  @DF-RKS Final Energy:   -76.38874355542205
    Total Energy =                        -76.3887435554220531
    Molecular point group: c2v
  Basis Set: CC-PVDZ
    Blend: CC-PVDZ
  Basis Set: (CC-PVDZ AUX)
    Blend: CC-PVDZ-JKFIT
  @DF-RKS Final Energy:   -76.38874355547679
    Total Energy =                        -76.3887435554768075
  Basis Set: CC-PVDZ
    Blend: CC-PVDZ
  Basis Set: (CC-PVDZ AUX)
    Blend: CC-PVDZ-JKFIT
  Basis Set: CC-PVDZ
    Blend: CC-PVDZ
  Basis Set: (CC-PVDZ AUX)
    Blend: CC-PVDZ-JKFIT
  @DF-RKS Final Energy:   -76.38874355547678
    Total Energy =                        -76.3887435554767933
  Basis Set: CC-PVDZ
  @DF-RKS Final Energy:   -76.38873768940344
    Total Energy =                        -76.3887376894034560
  @DF-RKS Final Energy:   -76.38874273988654
    Total Energy =                        -76.3887427398865384
  @DF-RKS Final Energy:   -76.38872289947628
    Total Energy =                        -76.3887228994762779
  Basis Set: (CC-PVDZ AUX)
    Blend: CC-PVDZ-JKFIT
  Basis Set: CC-PVDZ
    Blend: CC-PVDZ
  Basis Set: (CC-PVDZ AUX)
    Blend: CC-PVDZ-JKFIT
  @DF-RKS Final Energy:   -76.38875425219206
    Total Energy =                        -76.3887542521920579
  Basis Set: CC-PVDZ
    Blend: CC-PVDZ
  Basis Set: (CC-PVDZ AUX)
    Blend: CC-PVDZ-JKFIT
    Molecular point group: cs
  Charge       = 0
  Multiplicity = 1
  Basis Set: CC-PVDZ
    Blend: CC-PVDZ
  Basis Set: (CC-PVDZ AUX)
    Blend: CC-PVDZ-JKFIT

    Orbital Energies [Eh]
    ---------------------

    Doubly Occupied:

       1Ap   -19.616441     2Ap    -1.111792     3Ap    -0.578958
       4Ap    -0.451199     1App   -0.373004

  @DF-RKS Final Energy:   -76.38873622579339

   => Energetics <=

    Nuclear Repulsion Energy =              9.1334682877742281
    One-Electron Energy =                -123.0624552218080510
    Two-Electron Energy =                  42.0286476544339820
    DFT Exchange-Correlation Energy =      -4.4883969461935580
    Empirical Dispersion Energy =           0.0000000000000000
    VV10 Nonlocal Energy =                  0.0000000000000000
    Total Energy =                        -76.3887362257933944

  Dipole Moment: [D]
     X:     0.0024      Y:     0.0000      Z:     1.9988     Total:     1.9988

    Molecular point group: cs

    Geometry (in Angstrom), charge = 0, multiplicity = 1:

       Center              X                  Y                   Z               Mass
    ------------   -----------------  -----------------  -----------------  -----------------
         O           -0.000175859669     0.000000000000    -0.067969259994    15.994914619570
         H            0.750425510279     0.000000000000     0.540492250436     1.007825032230
         H           -0.747634489721     0.000000000000     0.538229229576     1.007825032230

  Basis Set: CC-PVDZ
    Blend: CC-PVDZ
  Basis Set: (CC-PVDZ AUX)
    Blend: CC-PVDZ-JKFIT

  -Total Gradient:
     Atom            X                  Y                   Z
    ------   -----------------  -----------------  -----------------
       1       -0.003132349408     0.000000000000    -0.000790028333
       2       -0.000685946908     0.000000000000     0.001611371897
       3        0.003824086010     0.000000000000    -0.000922944935

  Vibration                       7                   8                   9
  Freq [cm^-1]                1658.3719           3854.6120           3946.5607
  Irrep                           A1                  A1                  B1
  Reduced mass [u]              1.0807              1.0471              1.0793
  Force const [mDyne/A]         1.7511              9.1660              9.9043

  ==> Thermochemistry Components <==

  Entropy, S
    Electronic S            0.000 [cal/(mol K)]        0.000 [J/(mol K)]       0.00000000 [mEh/K] (multiplicity = 1)
    Translational S        34.608 [cal/(mol K)]      144.801 [J/(mol K)]       0.05515177 [mEh/K] (mol. weight = 18.0106 [u], P = 101325.00 [Pa])
    Rotational S           10.508 [cal/(mol K)]       43.968 [J/(mol K)]       0.01674635 [mEh/K] (symmetry no. = 2)
    Vibrational S           0.006 [cal/(mol K)]        0.025 [J/(mol K)]       0.00000954 [mEh/K]
  Total S                  45.123 [cal/(mol K)]      188.794 [J/(mol K)]       0.07190767 [mEh/K]
  Correction S              0.000 [cal/(mol K)]        0.000 [J/(mol K)]       0.00000000 [mEh/K]

  Constant volume heat capacity, Cv
    Electronic Cv           0.000 [cal/(mol K)]        0.000 [J/(mol K)]       0.00000000 [mEh/K]
    Translational Cv        2.981 [cal/(mol K)]       12.472 [J/(mol K)]       0.00475022 [mEh/K]
    Rotational Cv           2.981 [cal/(mol K)]       12.472 [J/(mol K)]       0.00475022 [mEh/K]
    Vibrational Cv          0.043 [cal/(mol K)]        0.178 [J/(mol K)]       0.00006791 [mEh/K]
  Total Cv                  6.004 [cal/(mol K)]       25.122 [J/(mol K)]       0.00956834 [mEh/K]
  Correction Cv             0.000 [cal/(mol K)]        0.000 [J/(mol K)]       0.00000000 [mEh/K]

  Constant pressure heat capacity, Cp
    Electronic Cp           0.000 [cal/(mol K)]        0.000 [J/(mol K)]       0.00000000 [mEh/K]
    Translational Cp        4.968 [cal/(mol K)]       20.786 [J/(mol K)]       0.00791703 [mEh/K]
    Rotational Cp           2.981 [cal/(mol K)]       12.472 [J/(mol K)]       0.00475022 [mEh/K]
    Vibrational Cp          0.043 [cal/(mol K)]        0.178 [J/(mol K)]       0.00006791 [mEh/K]
  Total Cp                  7.991 [cal/(mol K)]       33.436 [J/(mol K)]       0.01273515 [mEh/K]
  Correction Cp             0.000 [cal/(mol K)]        0.000 [J/(mol K)]       0.00000000 [mEh/K]

  ==> Thermochemistry Energy Analysis <==

  Raw electronic energy, E0
  Total E0, Electronic energy at well bottom at 0 [K]                  -76.38874356 [Eh]

  Zero-point energy, ZPE_vib = Sum_i nu_i / 2
    Electronic ZPE          0.000 [kcal/mol]        0.000 [kJ/mol]       0.00000000 [Eh]
    Translational ZPE       0.000 [kcal/mol]        0.000 [kJ/mol]       0.00000000 [Eh]
    Rotational ZPE          0.000 [kcal/mol]        0.000 [kJ/mol]       0.00000000 [Eh]
    Vibrational ZPE        13.523 [kcal/mol]       56.581 [kJ/mol]       0.02155043 [Eh]        4729.772 [cm^-1]
  Correction ZPE           13.523 [kcal/mol]       56.581 [kJ/mol]       0.02155043 [Eh]        4729.772 [cm^-1]
  Total ZPE, Electronic energy at 0 [K]                                -76.36719313 [Eh]

  Thermal Energy, E (includes ZPE)
    Electronic E            0.000 [kcal/mol]        0.000 [kJ/mol]       0.00000000 [Eh]
    Translational E         0.889 [kcal/mol]        3.718 [kJ/mol]       0.00141628 [Eh]
    Rotational E            0.889 [kcal/mol]        3.718 [kJ/mol]       0.00141628 [Eh]
    Vibrational E          13.525 [kcal/mol]       56.587 [kJ/mol]       0.02155296 [Eh]
  Correction E             15.302 [kcal/mol]       64.024 [kJ/mol]       0.02438551 [Eh]
  Total E, Electronic energy at  298.15 [K]                            -76.36435804 [Eh]

  Enthalpy, H_trans = E_trans + k_B * T
    Electronic H            0.000 [kcal/mol]        0.000 [kJ/mol]       0.00000000 [Eh]
    Translational H         1.481 [kcal/mol]        6.197 [kJ/mol]       0.00236046 [Eh]
    Rotational H            0.889 [kcal/mol]        3.718 [kJ/mol]       0.00141628 [Eh]
    Vibrational H          13.525 [kcal/mol]       56.587 [kJ/mol]       0.02155296 [Eh]
  Correction H             15.895 [kcal/mol]       66.503 [kJ/mol]       0.02532970 [Eh]
  Total H, Enthalpy at  298.15 [K]                                     -76.36341386 [Eh]

  Gibbs free energy, G = H - T * S
    Electronic G            0.000 [kcal/mol]        0.000 [kJ/mol]       0.00000000 [Eh]
    Translational G        -8.837 [kcal/mol]      -36.975 [kJ/mol]      -0.01408304 [Eh]
    Rotational G           -2.244 [kcal/mol]       -9.390 [kJ/mol]      -0.00357665 [Eh]
    Vibrational G          13.523 [kcal/mol]       56.580 [kJ/mol]       0.02155011 [Eh]
  Correction G              2.441 [kcal/mol]       10.214 [kJ/mol]       0.00389042 [Eh]
  Total G, Free enthalpy at  298.15 [K]                                -76.38485313 [Eh]

*** Psi4 exiting successfully. Buy a developer a beer!
