                               Psi4 1.3.2 release

  ==> Input File <==

--------------------------------------------------------------------------
set basis  cc-pVTZ
molecule {
0 1
   O        0.00000        0.00000       -0.06797
   H        0.74903        0.00000        0.53936
   H       -0.74903        0.00000        0.53936
}
energy('m06-2x')
frequencies('m06-2x')

--------------------------------------------------------------------------

    Molecular point group: c2v
  Charge       = 0
  Multiplicity = 1
  Basis Set: CC-PVTZ
    Blend: CC-PVTZ
  Basis Set: (CC-PVTZ AUX)
    Blend: CC-PVTZ-JKFIT
  @DF-RKS Final Energy:   -76.42504900779844
    Total Energy =                        -76.4250490077984352
    Molecular point group: c2v
  Basis Set: CC-PVTZ
    Blend: CC-PVTZ
  Basis Set: (CC-PVTZ AUX)
    Blend: CC-PVTZ-JKFIT
  @DF-RKS Final Energy:   -76.42504900790701
    Total Energy =                        -76.4250490079070062
  Basis Set: CC-PVTZ
    Blend: CC-PVTZ
  Basis Set: (CC-PVTZ AUX)
    Blend: CC-PVTZ-JKFIT
  Basis Set: CC-PVTZ
    Blend: CC-PVTZ
  Basis Set: (CC-PVTZ AUX)
    Blend: CC-PVTZ-JKFIT
  @DF-RKS Final Energy:   -76.42504900790694
    Total Energy =                        -76.4250490079069351
  Basis Set: CC-PVTZ
  @DF-RKS Final Energy:   -76.42500322026507
    Total Energy =                        -76.4250032202650686
  @DF-RKS Final Energy:   -76.42508821357382
    Total Energy =                        -76.4250882135738152
  @DF-RKS Final Energy:   -76.42504743736269
    Total Energy =                        -76.4250474373627071
  Basis Set: (CC-PVTZ AUX)
    Blend: CC-PVTZ-JKFIT
  Basis Set: CC-PVTZ
    Blend: CC-PVTZ
  Basis Set: (CC-PVTZ AUX)
    Blend: CC-PVTZ-JKFIT
  @DF-RKS Final Energy:   -76.42504076874370
    Total Energy =                        -76.4250407687436990
  Basis Set: CC-PVTZ
    Blend: CC-PVTZ
  Basis Set: (CC-PVTZ AUX)
    Blend: CC-PVTZ-JKFIT
    Molecular point group: cs
  Charge       = 0
  Multiplicity = 1
  Basis Set: CC-PVTZ
    Blend: CC-PVTZ
  Basis Set: (CC-PVTZ AUX)
    Blend: CC-PVTZ-JKFIT

    Orbital Energies [Eh]
    ---------------------

    Doubly Occupied:

       1Ap   -19.614900     2Ap    -1.127204     3Ap    -0.594252
       4Ap    -0.471115     1App   -0.393786

  @DF-RKS Final Energy:   -76.42504187643549

   => Energetics <=

    Nuclear Repulsion Energy =              9.1334682877742281
    One-Electron Energy =                -123.0048221911082322
    Two-Electron Energy =                  41.9294955781746879
    DFT Exchange-Correlation Energy =      -4.4831835512761549
    Empirical Dispersion Energy =           0.0000000000000000
    VV10 Nonlocal Energy =                  0.0000000000000000
    Total Energy =                        -76.4250418764354862

  Dipole Moment: [D]
     X:     0.0029      Y:     0.0000      Z:     2.0048     Total:     2.0048

    Molecular point group: cs

    Geometry (in Angstrom), charge = 0, multiplicity = 1:

       Center              X                  Y                   Z               Mass
    ------------   -----------------  -----------------  -----------------  -----------------
         O           -0.000175859669     0.000000000000    -0.067969259994    15.994914619570
         H            0.750425510279     0.000000000000     0.540492250436     1.007825032230
         H           -0.747634489721     0.000000000000     0.538229229576     1.007825032230

  Basis Set: CC-PVTZ
    Blend: CC-PVTZ
  Basis Set: (CC-PVTZ AUX)
    Blend: CC-PVTZ-JKFIT

  -Total Gradient:
     Atom            X                  Y                   Z
    ------   -----------------  -----------------  -----------------
       1       -0.003053226125     0.000000000000    -0.011367048851
       2        0.002005288497     0.000000000000     0.006929469475
       3        0.001056917041     0.000000000000     0.004473392855

  Vibration                       7                   8                   9
  Freq [cm^-1]                1668.1940           3815.3602           3893.4638
  Irrep                           A1                  A1                  B1
  Reduced mass [u]              1.0810              1.0468              1.0793
  Force const [mDyne/A]         1.7724              8.9779              9.6396

  ==> Thermochemistry Components <==

  Entropy, S
    Electronic S            0.000 [cal/(mol K)]        0.000 [J/(mol K)]       0.00000000 [mEh/K] (multiplicity = 1)
    Translational S        34.608 [cal/(mol K)]      144.801 [J/(mol K)]       0.05515177 [mEh/K] (mol. weight = 18.0106 [u], P = 101325.00 [Pa])
    Rotational S           10.508 [cal/(mol K)]       43.968 [J/(mol K)]       0.01674635 [mEh/K] (symmetry no. = 2)
    Vibrational S           0.006 [cal/(mol K)]        0.024 [J/(mol K)]       0.00000915 [mEh/K]
  Total S                  45.122 [cal/(mol K)]      188.793 [J/(mol K)]       0.07190727 [mEh/K]
  Correction S              0.000 [cal/(mol K)]        0.000 [J/(mol K)]       0.00000000 [mEh/K]

  Constant volume heat capacity, Cv
    Electronic Cv           0.000 [cal/(mol K)]        0.000 [J/(mol K)]       0.00000000 [mEh/K]
    Translational Cv        2.981 [cal/(mol K)]       12.472 [J/(mol K)]       0.00475022 [mEh/K]
    Rotational Cv           2.981 [cal/(mol K)]       12.472 [J/(mol K)]       0.00475022 [mEh/K]
    Vibrational Cv          0.041 [cal/(mol K)]        0.172 [J/(mol K)]       0.00006554 [mEh/K]
  Total Cv                  6.003 [cal/(mol K)]       25.115 [J/(mol K)]       0.00956597 [mEh/K]
  Correction Cv             0.000 [cal/(mol K)]        0.000 [J/(mol K)]       0.00000000 [mEh/K]

  Constant pressure heat capacity, Cp
    Electronic Cp           0.000 [cal/(mol K)]        0.000 [J/(mol K)]       0.00000000 [mEh/K]
    Translational Cp        4.968 [cal/(mol K)]       20.786 [J/(mol K)]       0.00791703 [mEh/K]
    Rotational Cp           2.981 [cal/(mol K)]       12.472 [J/(mol K)]       0.00475022 [mEh/K]
    Vibrational Cp          0.041 [cal/(mol K)]        0.172 [J/(mol K)]       0.00006554 [mEh/K]
  Total Cp                  7.990 [cal/(mol K)]       33.430 [J/(mol K)]       0.01273278 [mEh/K]
  Correction Cp             0.000 [cal/(mol K)]        0.000 [J/(mol K)]       0.00000000 [mEh/K]

  ==> Thermochemistry Energy Analysis <==

  Raw electronic energy, E0
  Total E0, Electronic energy at well bottom at 0 [K]                  -76.42504901 [Eh]

  Zero-point energy, ZPE_vib = Sum_i nu_i / 2
    Electronic ZPE          0.000 [kcal/mol]        0.000 [kJ/mol]       0.00000000 [Eh]
    Translational ZPE       0.000 [kcal/mol]        0.000 [kJ/mol]       0.00000000 [Eh]
    Rotational ZPE          0.000 [kcal/mol]        0.000 [kJ/mol]       0.00000000 [Eh]
    Vibrational ZPE        13.405 [kcal/mol]       56.087 [kJ/mol]       0.02136242 [Eh]        4688.509 [cm^-1]
  Correction ZPE           13.405 [kcal/mol]       56.087 [kJ/mol]       0.02136242 [Eh]        4688.509 [cm^-1]
  Total ZPE, Electronic energy at 0 [K]                                -76.40368659 [Eh]

  Thermal Energy, E (includes ZPE)
    Electronic E            0.000 [kcal/mol]        0.000 [kJ/mol]       0.00000000 [Eh]
    Translational E         0.889 [kcal/mol]        3.718 [kJ/mol]       0.00141628 [Eh]
    Rotational E            0.889 [kcal/mol]        3.718 [kJ/mol]       0.00141628 [Eh]
    Vibrational E          13.407 [kcal/mol]       56.093 [kJ/mol]       0.02136484 [Eh]
  Correction E             15.184 [kcal/mol]       63.530 [kJ/mol]       0.02419740 [Eh]
  Total E, Electronic energy at  298.15 [K]                            -76.40085161 [Eh]

  Enthalpy, H_trans = E_trans + k_B * T
    Electronic H            0.000 [kcal/mol]        0.000 [kJ/mol]       0.00000000 [Eh]
    Translational H         1.481 [kcal/mol]        6.197 [kJ/mol]       0.00236046 [Eh]
    Rotational H            0.889 [kcal/mol]        3.718 [kJ/mol]       0.00141628 [Eh]
    Vibrational H          13.407 [kcal/mol]       56.093 [kJ/mol]       0.02136484 [Eh]
  Correction H             15.777 [kcal/mol]       66.009 [kJ/mol]       0.02514158 [Eh]
  Total H, Enthalpy at  298.15 [K]                                     -76.39990742 [Eh]

  Gibbs free energy, G = H - T * S
    Electronic G            0.000 [kcal/mol]        0.000 [kJ/mol]       0.00000000 [Eh]
    Translational G        -8.837 [kcal/mol]      -36.975 [kJ/mol]      -0.01408304 [Eh]
    Rotational G           -2.244 [kcal/mol]       -9.390 [kJ/mol]      -0.00357665 [Eh]
    Vibrational G          13.405 [kcal/mol]       56.086 [kJ/mol]       0.02136212 [Eh]
  Correction G              2.323 [kcal/mol]        9.721 [kJ/mol]       0.00370243 [Eh]
  Total G, Free enthalpy at  298.15 [K]                                -76.42134658 [Eh]

*** Psi4 exiting successfully. Buy a developer a beer!
