                               Psi4 1.3.2 release

  ==> Input File <==

--------------------------------------------------------------------------
set basis  aug-cc-pVTZ
molecule {
0 1
   O        0.00000        0.00000       -0.06797
   H        0.74903        0.00000        0.53936
   H       -0.74903        0.00000        0.53936
}
energy('scf')
frequencies('scf')

--------------------------------------------------------------------------

    Molecular point group: c2v
  Charge       = 0
  Multiplicity = 1
  Basis Set: AUG-CC-PVTZ
    Blend: AUG-CC-PVTZ
  Basis Set: (AUG-CC-PVTZ AUX)
    Blend: AUG-CC-PVTZ-JKFIT
  @DF-RHF Final Energy:   -76.05973551853737
    Total Energy =                        -76.0597355185373658
    Molecular point group: c2v
  Basis Set: AUG-CC-PVTZ
    Blend: AUG-CC-PVTZ
  Basis Set: (AUG-CC-PVTZ AUX)
    Blend: AUG-CC-PVTZ-JKFIT
  @DF-RHF Final Energy:   -76.05973552147800
    Total Energy =                        -76.0597355214780038
  Basis Set: AUG-CC-PVTZ
    Blend: AUG-CC-PVTZ
  Basis Set: (AUG-CC-PVTZ AUX)
    Blend: AUG-CC-PVTZ-JKFIT

  -Total Gradient:
     Atom            X                  Y                   Z
    ------   -----------------  -----------------  -----------------
       1        0.000000000000    -0.000000000000    -0.038407987189
       2        0.014133755488     0.000000000000     0.019203993594
       3       -0.014133755488    -0.000000000000     0.019203993594

  Charge       = 0
  Multiplicity = 1
  Basis Set: AUG-CC-PVTZ
    Blend: AUG-CC-PVTZ
  Basis Set: (AUG-CC-PVTZ AUX)
    Blend: AUG-CC-PVTZ-JKFIT

    Orbital Energies [Eh]
    ---------------------

    Doubly Occupied:

       1A1   -20.569570     2A1    -1.351839     1B1    -0.708935
       3A1    -0.588659     1B2    -0.510538

  @DF-RHF Final Energy:   -76.05973552147800

   => Energetics <=

    Nuclear Repulsion Energy =              9.1334334609951409
    One-Electron Energy =                -122.9272563805464387
    Two-Electron Energy =                  37.7340873980732994
    Total Energy =                        -76.0597355214780038

  Dipole Moment: [D]
     X:     0.0000      Y:     0.0000      Z:     2.0306     Total:     2.0306

    Molecular point group: c2v
  Basis Set: AUG-CC-PVTZ
    Blend: AUG-CC-PVTZ
  Basis Set: (AUG-CC-PVTZ AUX)
    Blend: AUG-CC-PVTZ-JKFIT
  Basis Set: (AUG-CC-PVTZ AUX)
    Blend: AUG-CC-PVTZ-JKFIT
    Molecular point group: c2v

    Geometry (in Angstrom), charge = 0, multiplicity = 1:

       Center              X                  Y                   Z               Mass
    ------------   -----------------  -----------------  -----------------  -----------------
         O            0.000000000000     0.000000000000    -0.067969259994    15.994914619570
         H            0.749030000000     0.000000000000     0.539360740006     1.007825032230
         H           -0.749030000000    -0.000000000000     0.539360740006     1.007825032230

  Basis Set: AUG-CC-PVTZ
    Blend: AUG-CC-PVTZ
  Basis Set: (AUG-CC-PVTZ AUX)
    Blend: AUG-CC-PVTZ-JKFIT

  Vibration                       4                   5                   6
  Freq [cm^-1]                 511.6719            588.6893            702.8592
  Irrep                           A2                  B1                  B2
  Reduced mass [u]              1.0078              1.0475              1.1259
  Force const [mDyne/A]         0.1555              0.2139              0.3277

  IR activ [km/mol]             0.0000             96.0215             263.8973

  Vibration                       7                   8                   9
  Freq [cm^-1]                1835.4696           3823.9488           3887.5668
  Irrep                           A1                  A1                  B1
  Reduced mass [u]              1.0810              1.0467              1.0802
  Force const [mDyne/A]         2.1457              9.0180              9.6183

  IR activ [km/mol]            88.1706             14.6443             71.8319

  ==> Thermochemistry Components <==

  Entropy, S
    Electronic S            0.000 [cal/(mol K)]        0.000 [J/(mol K)]       0.00000000 [mEh/K] (multiplicity = 1)
    Translational S        34.608 [cal/(mol K)]      144.801 [J/(mol K)]       0.05515177 [mEh/K] (mol. weight = 18.0106 [u], P = 101325.00 [Pa])
    Rotational S           10.508 [cal/(mol K)]       43.968 [J/(mol K)]       0.01674635 [mEh/K] (symmetry no. = 2)
    Vibrational S           1.405 [cal/(mol K)]        5.877 [J/(mol K)]       0.00223837 [mEh/K]
  Total S                  46.521 [cal/(mol K)]      194.645 [J/(mol K)]       0.07413650 [mEh/K]
  Correction S              0.000 [cal/(mol K)]        0.000 [J/(mol K)]       0.00000000 [mEh/K]

  Constant volume heat capacity, Cv
    Electronic Cv           0.000 [cal/(mol K)]        0.000 [J/(mol K)]       0.00000000 [mEh/K]
    Translational Cv        2.981 [cal/(mol K)]       12.472 [J/(mol K)]       0.00475022 [mEh/K]
    Rotational Cv           2.981 [cal/(mol K)]       12.472 [J/(mol K)]       0.00475022 [mEh/K]
    Vibrational Cv          3.126 [cal/(mol K)]       13.079 [J/(mol K)]       0.00498159 [mEh/K]
  Total Cv                  9.088 [cal/(mol K)]       38.023 [J/(mol K)]       0.01448202 [mEh/K]
  Correction Cv             0.000 [cal/(mol K)]        0.000 [J/(mol K)]       0.00000000 [mEh/K]

  Constant pressure heat capacity, Cp
    Electronic Cp           0.000 [cal/(mol K)]        0.000 [J/(mol K)]       0.00000000 [mEh/K]
    Translational Cp        4.968 [cal/(mol K)]       20.786 [J/(mol K)]       0.00791703 [mEh/K]
    Rotational Cp           2.981 [cal/(mol K)]       12.472 [J/(mol K)]       0.00475022 [mEh/K]
    Vibrational Cp          3.126 [cal/(mol K)]       13.079 [J/(mol K)]       0.00498159 [mEh/K]
  Total Cp                 11.075 [cal/(mol K)]       46.337 [J/(mol K)]       0.01764883 [mEh/K]
  Correction Cp             0.000 [cal/(mol K)]        0.000 [J/(mol K)]       0.00000000 [mEh/K]

  ==> Thermochemistry Energy Analysis <==

  Raw electronic energy, E0
  Total E0, Electronic energy at well bottom at 0 [K]                  -76.05973552 [Eh]

  Zero-point energy, ZPE_vib = Sum_i nu_i / 2
    Electronic ZPE          0.000 [kcal/mol]        0.000 [kJ/mol]       0.00000000 [Eh]
    Translational ZPE       0.000 [kcal/mol]        0.000 [kJ/mol]       0.00000000 [Eh]
    Rotational ZPE          0.000 [kcal/mol]        0.000 [kJ/mol]       0.00000000 [Eh]
    Vibrational ZPE        16.226 [kcal/mol]       67.889 [kJ/mol]       0.02585767 [Eh]        5675.103 [cm^-1]
  Correction ZPE           16.226 [kcal/mol]       67.889 [kJ/mol]       0.02585767 [Eh]        5675.103 [cm^-1]
  Total ZPE, Electronic energy at 0 [K]                                -76.03387785 [Eh]

  Thermal Energy, E (includes ZPE)
    Electronic E            0.000 [kcal/mol]        0.000 [kJ/mol]       0.00000000 [Eh]
    Translational E         0.889 [kcal/mol]        3.718 [kJ/mol]       0.00141628 [Eh]
    Rotational E            0.889 [kcal/mol]        3.718 [kJ/mol]       0.00141628 [Eh]
    Vibrational E          16.536 [kcal/mol]       69.188 [kJ/mol]       0.02635228 [Eh]
  Correction E             18.314 [kcal/mol]       76.625 [kJ/mol]       0.02918483 [Eh]
  Total E, Electronic energy at  298.15 [K]                            -76.03055069 [Eh]

  Enthalpy, H_trans = E_trans + k_B * T
    Electronic H            0.000 [kcal/mol]        0.000 [kJ/mol]       0.00000000 [Eh]
    Translational H         1.481 [kcal/mol]        6.197 [kJ/mol]       0.00236046 [Eh]
    Rotational H            0.889 [kcal/mol]        3.718 [kJ/mol]       0.00141628 [Eh]
    Vibrational H          16.536 [kcal/mol]       69.188 [kJ/mol]       0.02635228 [Eh]
  Correction H             18.906 [kcal/mol]       79.104 [kJ/mol]       0.03012902 [Eh]
  Total H, Enthalpy at  298.15 [K]                                     -76.02960650 [Eh]

  Gibbs free energy, G = H - T * S
    Electronic G            0.000 [kcal/mol]        0.000 [kJ/mol]       0.00000000 [Eh]
    Translational G        -8.837 [kcal/mol]      -36.975 [kJ/mol]      -0.01408304 [Eh]
    Rotational G           -2.244 [kcal/mol]       -9.390 [kJ/mol]      -0.00357665 [Eh]
    Vibrational G          16.118 [kcal/mol]       67.436 [kJ/mol]       0.02568491 [Eh]
  Correction G              5.036 [kcal/mol]       21.070 [kJ/mol]       0.00802522 [Eh]
  Total G, Free enthalpy at  298.15 [K]                                -76.05171030 [Eh]

*** Psi4 exiting successfully. Buy a developer a beer!
