                               Psi4 1.3.2 release

  ==> Input File <==

--------------------------------------------------------------------------
set basis  cc-pVDZ
molecule {
0 1
   O        0.00000        0.00000       -0.06797
   H        0.74903        0.00000        0.53936
   H       -0.74903        0.00000        0.53936
}
energy('CCSD')
frequencies('CCSD')

--------------------------------------------------------------------------

    Molecular point group: c2v
  Charge       = 0
  Multiplicity = 1
  Basis Set: CC-PVDZ
    Blend: CC-PVDZ
  @RHF Final Energy:   -76.02625983472494
    Total Energy =                        -76.0262598347249252
      * MP2 total energy                      =  -76.230989371034497
      * CCSD total energy                     =  -76.240284421862341
    Molecular point group: c2v
  Basis Set: CC-PVDZ
    Blend: CC-PVDZ
  @RHF Final Energy:   -76.02625983472488
    Total Energy =                        -76.0262598347248826
      * MP2 total energy                      =  -76.230989371229882
      * CCSD total energy                     =  -76.240284422274968
  Basis Set: CC-PVDZ
    Blend: CC-PVDZ
  @RHF Final Energy:   -76.02625983472488
    Total Energy =                        -76.0262598347248826
      * MP2 total energy                      =  -76.230989371229910
      * CCSD total energy                     =  -76.240284422177922
  Basis Set: CC-PVDZ
    Blend: CC-PVDZ
  @RHF Final Energy:   -76.02614868075528
    Total Energy =                        -76.0261486807552984
      * MP2 total energy                      =  -76.230986149153253
      * CCSD total energy                     =  -76.240279276709131
  Basis Set: CC-PVDZ
    Blend: CC-PVDZ
  @RHF Final Energy:   -76.02636382322338
    Total Energy =                        -76.0263638232233774
      * MP2 total energy                      =  -76.230985888847627
      * CCSD total energy                     =  -76.240282817277958
  Basis Set: CC-PVDZ
    Blend: CC-PVDZ
  @RHF Final Energy:   -76.02633949378546
    Total Energy =                        -76.0263394937854571
      * MP2 total energy                      =  -76.230984131256022
      * CCSD total energy                     =  -76.240276177063819
  Basis Set: CC-PVDZ
    Blend: CC-PVDZ
  @RHF Final Energy:   -76.02616990586991
    Total Energy =                        -76.0261699058699207
      * MP2 total energy                      =  -76.230984584929274
      * CCSD total energy                     =  -76.240282646802115
    Molecular point group: cs
  Charge       = 0
  Multiplicity = 1
  Basis Set: CC-PVDZ
    Blend: CC-PVDZ

    Orbital Energies [Eh]
    ---------------------

    Doubly Occupied:

       1Ap   -20.553080     2Ap    -1.335197     3Ap    -0.690595
       4Ap    -0.570569     1App   -0.493589

  @RHF Final Energy:   -76.02625244554874

   => Energetics <=

    Nuclear Repulsion Energy =              9.1334682877742281
    One-Electron Energy =                -123.0333816895751795
    Two-Electron Energy =                  37.8736609562522091
    Total Energy =                        -76.0262524455487352

  Dipole Moment: [D]
     X:     0.0028      Y:     0.0000      Z:     2.1019     Total:     2.1019

      * MP2 total energy                      =  -76.230981896074184
      * CCSD total energy                     =  -76.240277027561859
    Molecular point group: cs

    Geometry (in Bohr), charge = 0, multiplicity = 1:

       Center              X                  Y                   Z
    ------------   -----------------  -----------------  -----------------
         O           -0.000332326610     0.000000000000    -0.128443286339
         H            1.418098691984     0.000000000000     1.021382326257
         H           -1.412824427519     0.000000000000     1.017105836614

  -Total gradient:
     Atom            X                  Y                   Z
    ------   -----------------  -----------------  -----------------
       1       -0.003145627593     0.000000000000    -0.000457320025
       2        0.001105365122     0.000000000000     0.001502746073
       3        0.002040262471     0.000000000000    -0.001045426047

  Vibration                       7                   8                   9
  Freq [cm^-1]                1700.5482           3851.5794           3953.7568
  Irrep                           A1                  A1                  B1
  Reduced mass [u]              1.0809              1.0468              1.0793
  Force const [mDyne/A]         1.8417              9.1496              9.9404

  ==> Thermochemistry Components <==

  Entropy, S
    Electronic S            0.000 [cal/(mol K)]        0.000 [J/(mol K)]       0.00000000 [mEh/K] (multiplicity = 1)
    Translational S        34.608 [cal/(mol K)]      144.801 [J/(mol K)]       0.05515177 [mEh/K] (mol. weight = 18.0106 [u], P = 101325.00 [Pa])
    Rotational S           10.508 [cal/(mol K)]       43.968 [J/(mol K)]       0.01674635 [mEh/K] (symmetry no. = 2)
    Vibrational S           0.005 [cal/(mol K)]        0.021 [J/(mol K)]       0.00000796 [mEh/K]
  Total S                  45.122 [cal/(mol K)]      188.789 [J/(mol K)]       0.07190609 [mEh/K]
  Correction S              0.000 [cal/(mol K)]        0.000 [J/(mol K)]       0.00000000 [mEh/K]

  Constant volume heat capacity, Cv
    Electronic Cv           0.000 [cal/(mol K)]        0.000 [J/(mol K)]       0.00000000 [mEh/K]
    Translational Cv        2.981 [cal/(mol K)]       12.472 [J/(mol K)]       0.00475022 [mEh/K]
    Rotational Cv           2.981 [cal/(mol K)]       12.472 [J/(mol K)]       0.00475022 [mEh/K]
    Vibrational Cv          0.037 [cal/(mol K)]        0.153 [J/(mol K)]       0.00005825 [mEh/K]
  Total Cv                  5.998 [cal/(mol K)]       25.096 [J/(mol K)]       0.00955868 [mEh/K]
  Correction Cv             0.000 [cal/(mol K)]        0.000 [J/(mol K)]       0.00000000 [mEh/K]

  Constant pressure heat capacity, Cp
    Electronic Cp           0.000 [cal/(mol K)]        0.000 [J/(mol K)]       0.00000000 [mEh/K]
    Translational Cp        4.968 [cal/(mol K)]       20.786 [J/(mol K)]       0.00791703 [mEh/K]
    Rotational Cp           2.981 [cal/(mol K)]       12.472 [J/(mol K)]       0.00475022 [mEh/K]
    Vibrational Cp          0.037 [cal/(mol K)]        0.153 [J/(mol K)]       0.00005825 [mEh/K]
  Total Cp                  7.985 [cal/(mol K)]       33.411 [J/(mol K)]       0.01272549 [mEh/K]
  Correction Cp             0.000 [cal/(mol K)]        0.000 [J/(mol K)]       0.00000000 [mEh/K]

  ==> Thermochemistry Energy Analysis <==

  Raw electronic energy, E0
  Total E0, Electronic energy at well bottom at 0 [K]                  -76.24028442 [Eh]

  Zero-point energy, ZPE_vib = Sum_i nu_i / 2
    Electronic ZPE          0.000 [kcal/mol]        0.000 [kJ/mol]       0.00000000 [Eh]
    Translational ZPE       0.000 [kcal/mol]        0.000 [kJ/mol]       0.00000000 [Eh]
    Rotational ZPE          0.000 [kcal/mol]        0.000 [kJ/mol]       0.00000000 [Eh]
    Vibrational ZPE        13.589 [kcal/mol]       56.858 [kJ/mol]       0.02165600 [Eh]        4752.942 [cm^-1]
  Correction ZPE           13.589 [kcal/mol]       56.858 [kJ/mol]       0.02165600 [Eh]        4752.942 [cm^-1]
  Total ZPE, Electronic energy at 0 [K]                                -76.21862842 [Eh]

  Thermal Energy, E (includes ZPE)
    Electronic E            0.000 [kcal/mol]        0.000 [kJ/mol]       0.00000000 [Eh]
    Translational E         0.889 [kcal/mol]        3.718 [kJ/mol]       0.00141628 [Eh]
    Rotational E            0.889 [kcal/mol]        3.718 [kJ/mol]       0.00141628 [Eh]
    Vibrational E          13.591 [kcal/mol]       56.863 [kJ/mol]       0.02165811 [Eh]
  Correction E             15.368 [kcal/mol]       64.300 [kJ/mol]       0.02449067 [Eh]
  Total E, Electronic energy at  298.15 [K]                            -76.21579376 [Eh]

  Enthalpy, H_trans = E_trans + k_B * T
    Electronic H            0.000 [kcal/mol]        0.000 [kJ/mol]       0.00000000 [Eh]
    Translational H         1.481 [kcal/mol]        6.197 [kJ/mol]       0.00236046 [Eh]
    Rotational H            0.889 [kcal/mol]        3.718 [kJ/mol]       0.00141628 [Eh]
    Vibrational H          13.591 [kcal/mol]       56.863 [kJ/mol]       0.02165811 [Eh]
  Correction H             15.961 [kcal/mol]       66.779 [kJ/mol]       0.02543485 [Eh]
  Total H, Enthalpy at  298.15 [K]                                     -76.21484957 [Eh]

  Gibbs free energy, G = H - T * S
    Electronic G            0.000 [kcal/mol]        0.000 [kJ/mol]       0.00000000 [Eh]
    Translational G        -8.837 [kcal/mol]      -36.975 [kJ/mol]      -0.01408304 [Eh]
    Rotational G           -2.244 [kcal/mol]       -9.390 [kJ/mol]      -0.00357665 [Eh]
    Vibrational G          13.589 [kcal/mol]       56.857 [kJ/mol]       0.02165574 [Eh]
  Correction G              2.508 [kcal/mol]       10.492 [kJ/mol]       0.00399605 [Eh]
  Total G, Free enthalpy at  298.15 [K]                                -76.23628837 [Eh]

*** Psi4 exiting successfully. Buy a developer a beer!
