                               Psi4 1.3.2 release

  ==> Input File <==

--------------------------------------------------------------------------
set basis  6-31+G*
molecule {
0 1
   O        0.00000        0.00000       -0.06797
   H        0.74903        0.00000        0.53936
   H       -0.74903        0.00000        0.53936
}
energy('CCSD')
frequencies('CCSD')

--------------------------------------------------------------------------

    Molecular point group: c2v
  Charge       = 0
  Multiplicity = 1
  Basis Set: 6-31+G*
    Blend: 6-31+G*
  @RHF Final Energy:   -76.01668799990790
    Total Energy =                        -76.0166879999079015
      * MP2 total energy                      =  -76.211837408144760
      * CCSD total energy                     =  -76.219666025132099
    Molecular point group: c2v
  Basis Set: 6-31+G*
    Blend: 6-31+G*
  @RHF Final Energy:   -76.01668799990793
    Total Energy =                        -76.0166879999079299
      * MP2 total energy                      =  -76.211837408347108
      * CCSD total energy                     =  -76.219666026752989
  Basis Set: 6-31+G*
    Blend: 6-31+G*
  @RHF Final Energy:   -76.01668799990792
    Total Energy =                        -76.0166879999079299
      * MP2 total energy                      =  -76.211837408347122
      * CCSD total energy                     =  -76.219666025308996
  Basis Set: 6-31+G*
    Blend: 6-31+G*
  @RHF Final Energy:   -76.01656594541318
    Total Energy =                        -76.0165659454131912
      * MP2 total energy                      =  -76.211835713915036
      * CCSD total energy                     =  -76.219664768679735
  Basis Set: 6-31+G*
    Blend: 6-31+G*
  @RHF Final Energy:   -76.01680285105320
    Total Energy =                        -76.0168028510531997
      * MP2 total energy                      =  -76.211832376642789
      * CCSD total energy                     =  -76.219660530558897
  Basis Set: 6-31+G*
    Blend: 6-31+G*
  @RHF Final Energy:   -76.01673712184575
    Total Energy =                        -76.0167371218457504
      * MP2 total energy                      =  -76.211758701946593
      * CCSD total energy                     =  -76.219587787869614
  Basis Set: 6-31+G*
    Blend: 6-31+G*
  @RHF Final Energy:   -76.01662865590519
    Total Energy =                        -76.0166286559051940
      * MP2 total energy                      =  -76.211906087248465
      * CCSD total energy                     =  -76.219734240917262
    Molecular point group: cs
  Charge       = 0
  Multiplicity = 1
  Basis Set: 6-31+G*
    Blend: 6-31+G*

    Orbital Energies [Eh]
    ---------------------

    Doubly Occupied:

       1Ap   -20.583425     2Ap    -1.355676     3Ap    -0.713528
       4Ap    -0.588780     1App   -0.509540

  @RHF Final Energy:   -76.01668065822257

   => Energetics <=

    Nuclear Repulsion Energy =              9.1334682877742281
    One-Electron Energy =                -122.7983984979115490
    Two-Electron Energy =                  37.6482495519147662
    Total Energy =                        -76.0166806582225547

  Dipole Moment: [D]
     X:     0.0032      Y:     0.0000      Z:     2.3852     Total:     2.3852

      * MP2 total energy                      =  -76.211829956670542
      * CCSD total energy                     =  -76.219658665296450
    Molecular point group: cs

    Geometry (in Bohr), charge = 0, multiplicity = 1:

       Center              X                  Y                   Z
    ------------   -----------------  -----------------  -----------------
         O           -0.000332326610     0.000000000000    -0.128443286339
         H            1.418098691984     0.000000000000     1.021382326257
         H           -1.412824427519     0.000000000000     1.017105836614

  -Total gradient:
     Atom            X                  Y                   Z
    ------   -----------------  -----------------  -----------------
       1       -0.003143570134     0.000000000000     0.000583501168
       2       -0.008832773960     0.000000000000     0.000967581929
       3        0.011976344094     0.000000000000    -0.001551083097

  Vibration                       7                   8                   9
  Freq [cm^-1]                1721.1898           3842.7230           3944.4957
  Irrep                           A1                  A1                  B1
  Reduced mass [u]              1.0811              1.0466              1.0793
  Force const [mDyne/A]         1.8870              9.1059              9.8939

  ==> Thermochemistry Components <==

  Entropy, S
    Electronic S            0.000 [cal/(mol K)]        0.000 [J/(mol K)]       0.00000000 [mEh/K] (multiplicity = 1)
    Translational S        34.608 [cal/(mol K)]      144.801 [J/(mol K)]       0.05515177 [mEh/K] (mol. weight = 18.0106 [u], P = 101325.00 [Pa])
    Rotational S           10.508 [cal/(mol K)]       43.968 [J/(mol K)]       0.01674635 [mEh/K] (symmetry no. = 2)
    Vibrational S           0.005 [cal/(mol K)]        0.019 [J/(mol K)]       0.00000728 [mEh/K]
  Total S                  45.121 [cal/(mol K)]      188.788 [J/(mol K)]       0.07190541 [mEh/K]
  Correction S              0.000 [cal/(mol K)]        0.000 [J/(mol K)]       0.00000000 [mEh/K]

  Constant volume heat capacity, Cv
    Electronic Cv           0.000 [cal/(mol K)]        0.000 [J/(mol K)]       0.00000000 [mEh/K]
    Translational Cv        2.981 [cal/(mol K)]       12.472 [J/(mol K)]       0.00475022 [mEh/K]
    Rotational Cv           2.981 [cal/(mol K)]       12.472 [J/(mol K)]       0.00475022 [mEh/K]
    Vibrational Cv          0.034 [cal/(mol K)]        0.142 [J/(mol K)]       0.00005402 [mEh/K]
  Total Cv                  5.996 [cal/(mol K)]       25.085 [J/(mol K)]       0.00955445 [mEh/K]
  Correction Cv             0.000 [cal/(mol K)]        0.000 [J/(mol K)]       0.00000000 [mEh/K]

  Constant pressure heat capacity, Cp
    Electronic Cp           0.000 [cal/(mol K)]        0.000 [J/(mol K)]       0.00000000 [mEh/K]
    Translational Cp        4.968 [cal/(mol K)]       20.786 [J/(mol K)]       0.00791703 [mEh/K]
    Rotational Cp           2.981 [cal/(mol K)]       12.472 [J/(mol K)]       0.00475022 [mEh/K]
    Vibrational Cp          0.034 [cal/(mol K)]        0.142 [J/(mol K)]       0.00005402 [mEh/K]
  Total Cp                  7.983 [cal/(mol K)]       33.400 [J/(mol K)]       0.01272126 [mEh/K]
  Correction Cp             0.000 [cal/(mol K)]        0.000 [J/(mol K)]       0.00000000 [mEh/K]

  ==> Thermochemistry Energy Analysis <==

  Raw electronic energy, E0
  Total E0, Electronic energy at well bottom at 0 [K]                  -76.21966603 [Eh]

  Zero-point energy, ZPE_vib = Sum_i nu_i / 2
    Electronic ZPE          0.000 [kcal/mol]        0.000 [kJ/mol]       0.00000000 [Eh]
    Translational ZPE       0.000 [kcal/mol]        0.000 [kJ/mol]       0.00000000 [Eh]
    Rotational ZPE          0.000 [kcal/mol]        0.000 [kJ/mol]       0.00000000 [Eh]
    Vibrational ZPE        13.593 [kcal/mol]       56.873 [kJ/mol]       0.02166175 [Eh]        4754.204 [cm^-1]
  Correction ZPE           13.593 [kcal/mol]       56.873 [kJ/mol]       0.02166175 [Eh]        4754.204 [cm^-1]
  Total ZPE, Electronic energy at 0 [K]                                -76.19800428 [Eh]

  Thermal Energy, E (includes ZPE)
    Electronic E            0.000 [kcal/mol]        0.000 [kJ/mol]       0.00000000 [Eh]
    Translational E         0.889 [kcal/mol]        3.718 [kJ/mol]       0.00141628 [Eh]
    Rotational E            0.889 [kcal/mol]        3.718 [kJ/mol]       0.00141628 [Eh]
    Vibrational E          13.594 [kcal/mol]       56.878 [kJ/mol]       0.02166369 [Eh]
  Correction E             15.372 [kcal/mol]       64.315 [kJ/mol]       0.02449624 [Eh]
  Total E, Electronic energy at  298.15 [K]                            -76.19516979 [Eh]

  Enthalpy, H_trans = E_trans + k_B * T
    Electronic H            0.000 [kcal/mol]        0.000 [kJ/mol]       0.00000000 [Eh]
    Translational H         1.481 [kcal/mol]        6.197 [kJ/mol]       0.00236046 [Eh]
    Rotational H            0.889 [kcal/mol]        3.718 [kJ/mol]       0.00141628 [Eh]
    Vibrational H          13.594 [kcal/mol]       56.878 [kJ/mol]       0.02166369 [Eh]
  Correction H             15.964 [kcal/mol]       66.794 [kJ/mol]       0.02544042 [Eh]
  Total H, Enthalpy at  298.15 [K]                                     -76.19422560 [Eh]

  Gibbs free energy, G = H - T * S
    Electronic G            0.000 [kcal/mol]        0.000 [kJ/mol]       0.00000000 [Eh]
    Translational G        -8.837 [kcal/mol]      -36.975 [kJ/mol]      -0.01408304 [Eh]
    Rotational G           -2.244 [kcal/mol]       -9.390 [kJ/mol]      -0.00357665 [Eh]
    Vibrational G          13.593 [kcal/mol]       56.872 [kJ/mol]       0.02166152 [Eh]
  Correction G              2.511 [kcal/mol]       10.507 [kJ/mol]       0.00400183 [Eh]
  Total G, Free enthalpy at  298.15 [K]                                -76.21566420 [Eh]

*** Psi4 exiting successfully. Buy a developer a beer!
