                               Psi4 1.3.2 release

  ==> Input File <==

--------------------------------------------------------------------------
set basis  6-31+G*
molecule {
0 1
   O        0.00000        0.00000       -0.06797
   H        0.74903        0.00000        0.53936
   H       -0.74903        0.00000        0.53936
}
energy('m06-2x')
frequencies('m06-2x')

--------------------------------------------------------------------------

    Molecular point group: c2v
  Charge       = 0
  Multiplicity = 1
  Basis Set: 6-31+G*
    Blend: 6-31+G*
  Basis Set: (6-31+G* AUX)
    Blend: HEAVY-AUG-CC-PVDZ-JKFIT
  @DF-RKS Final Energy:   -76.38335029175488
    Total Energy =                        -76.3833502917548941
    Molecular point group: c2v
  Basis Set: 6-31+G*
    Blend: 6-31+G*
  Basis Set: (6-31+G* AUX)
    Blend: HEAVY-AUG-CC-PVDZ-JKFIT
  @DF-RKS Final Energy:   -76.38335029183744
    Total Energy =                        -76.3833502918374450
  Basis Set: 6-31+G*
    Blend: 6-31+G*
  Basis Set: (6-31+G* AUX)
    Blend: HEAVY-AUG-CC-PVDZ-JKFIT
  Basis Set: 6-31+G*
    Blend: 6-31+G*
  Basis Set: (6-31+G* AUX)
    Blend: HEAVY-AUG-CC-PVDZ-JKFIT
  @DF-RKS Final Energy:   -76.38335029183742
    Total Energy =                        -76.3833502918374165
  Basis Set: 6-31+G*
  @DF-RKS Final Energy:   -76.38332573284211
    Total Energy =                        -76.3833257328421098
  @DF-RKS Final Energy:   -76.38336808471652
    Total Energy =                        -76.3833680847165226
  @DF-RKS Final Energy:   -76.38329778965233
    Total Energy =                        -76.3832977896523317
  Basis Set: (6-31+G* AUX)
    Blend: HEAVY-AUG-CC-PVDZ-JKFIT
  Basis Set: 6-31+G*
    Blend: 6-31+G*
  Basis Set: (6-31+G* AUX)
    Blend: HEAVY-AUG-CC-PVDZ-JKFIT
  @DF-RKS Final Energy:   -76.38339283146128
    Total Energy =                        -76.3833928314612791
  Basis Set: 6-31+G*
    Blend: 6-31+G*
  Basis Set: (6-31+G* AUX)
    Blend: HEAVY-AUG-CC-PVDZ-JKFIT
    Molecular point group: cs
  Charge       = 0
  Multiplicity = 1
  Basis Set: 6-31+G*
    Blend: 6-31+G*
  Basis Set: (6-31+G* AUX)
    Blend: HEAVY-AUG-CC-PVDZ-JKFIT

    Orbital Energies [Eh]
    ---------------------

    Doubly Occupied:

       1Ap   -19.651724     2Ap    -1.138878     3Ap    -0.607457
       4Ap    -0.476838     1App   -0.396462

  @DF-RKS Final Energy:   -76.38334297267815

   => Energetics <=

    Nuclear Repulsion Energy =              9.1334682877742281
    One-Electron Energy =                -122.7895040854385229
    Two-Electron Energy =                  41.7374584647866200
    DFT Exchange-Correlation Energy =      -4.4647656398004907
    Empirical Dispersion Energy =           0.0000000000000000
    VV10 Nonlocal Energy =                  0.0000000000000000
    Total Energy =                        -76.3833429726781645

  Dipole Moment: [D]
     X:     0.0030      Y:     0.0000      Z:     2.3381     Total:     2.3381

    Molecular point group: cs

    Geometry (in Angstrom), charge = 0, multiplicity = 1:

       Center              X                  Y                   Z               Mass
    ------------   -----------------  -----------------  -----------------  -----------------
         O           -0.000175859669     0.000000000000    -0.067969259994    15.994914619570
         H            0.750425510279     0.000000000000     0.540492250436     1.007825032230
         H           -0.747634489721     0.000000000000     0.538229229576     1.007825032230

  Basis Set: 6-31+G*
    Blend: 6-31+G*
  Basis Set: (6-31+G* AUX)
    Blend: HEAVY-AUG-CC-PVDZ-JKFIT

  -Total Gradient:
     Atom            X                  Y                   Z
    ------   -----------------  -----------------  -----------------
       1       -0.003135438022     0.000000000000    -0.005759652361
       2       -0.005205791306     0.000000000000     0.004090797559
       3        0.008345478086     0.000000000000     0.001582448805

  Vibration                       7                   8                   9
  Freq [cm^-1]                1702.3443           3846.8000           3939.8033
  Irrep                           A1                  A1                  B1
  Reduced mass [u]              1.0805              1.0472              1.0793
  Force const [mDyne/A]         1.8449              9.1299              9.8704

  ==> Thermochemistry Components <==

  Entropy, S
    Electronic S            0.000 [cal/(mol K)]        0.000 [J/(mol K)]       0.00000000 [mEh/K] (multiplicity = 1)
    Translational S        34.608 [cal/(mol K)]      144.801 [J/(mol K)]       0.05515177 [mEh/K] (mol. weight = 18.0106 [u], P = 101325.00 [Pa])
    Rotational S           10.508 [cal/(mol K)]       43.968 [J/(mol K)]       0.01674635 [mEh/K] (symmetry no. = 2)
    Vibrational S           0.005 [cal/(mol K)]        0.021 [J/(mol K)]       0.00000790 [mEh/K]
  Total S                  45.122 [cal/(mol K)]      188.789 [J/(mol K)]       0.07190602 [mEh/K]
  Correction S              0.000 [cal/(mol K)]        0.000 [J/(mol K)]       0.00000000 [mEh/K]

  Constant volume heat capacity, Cv
    Electronic Cv           0.000 [cal/(mol K)]        0.000 [J/(mol K)]       0.00000000 [mEh/K]
    Translational Cv        2.981 [cal/(mol K)]       12.472 [J/(mol K)]       0.00475022 [mEh/K]
    Rotational Cv           2.981 [cal/(mol K)]       12.472 [J/(mol K)]       0.00475022 [mEh/K]
    Vibrational Cv          0.036 [cal/(mol K)]        0.152 [J/(mol K)]       0.00005787 [mEh/K]
  Total Cv                  5.998 [cal/(mol K)]       25.095 [J/(mol K)]       0.00955830 [mEh/K]
  Correction Cv             0.000 [cal/(mol K)]        0.000 [J/(mol K)]       0.00000000 [mEh/K]

  Constant pressure heat capacity, Cp
    Electronic Cp           0.000 [cal/(mol K)]        0.000 [J/(mol K)]       0.00000000 [mEh/K]
    Translational Cp        4.968 [cal/(mol K)]       20.786 [J/(mol K)]       0.00791703 [mEh/K]
    Rotational Cp           2.981 [cal/(mol K)]       12.472 [J/(mol K)]       0.00475022 [mEh/K]
    Vibrational Cp          0.036 [cal/(mol K)]        0.152 [J/(mol K)]       0.00005787 [mEh/K]
  Total Cp                  7.985 [cal/(mol K)]       33.410 [J/(mol K)]       0.01272511 [mEh/K]
  Correction Cp             0.000 [cal/(mol K)]        0.000 [J/(mol K)]       0.00000000 [mEh/K]

  ==> Thermochemistry Energy Analysis <==

  Raw electronic energy, E0
  Total E0, Electronic energy at well bottom at 0 [K]                  -76.38335029 [Eh]

  Zero-point energy, ZPE_vib = Sum_i nu_i / 2
    Electronic ZPE          0.000 [kcal/mol]        0.000 [kJ/mol]       0.00000000 [Eh]
    Translational ZPE       0.000 [kcal/mol]        0.000 [kJ/mol]       0.00000000 [Eh]
    Rotational ZPE          0.000 [kcal/mol]        0.000 [kJ/mol]       0.00000000 [Eh]
    Vibrational ZPE        13.565 [kcal/mol]       56.757 [kJ/mol]       0.02161741 [Eh]        4744.474 [cm^-1]
  Correction ZPE           13.565 [kcal/mol]       56.757 [kJ/mol]       0.02161741 [Eh]        4744.474 [cm^-1]
  Total ZPE, Electronic energy at 0 [K]                                -76.36173288 [Eh]

  Thermal Energy, E (includes ZPE)
    Electronic E            0.000 [kcal/mol]        0.000 [kJ/mol]       0.00000000 [Eh]
    Translational E         0.889 [kcal/mol]        3.718 [kJ/mol]       0.00141628 [Eh]
    Rotational E            0.889 [kcal/mol]        3.718 [kJ/mol]       0.00141628 [Eh]
    Vibrational E          13.566 [kcal/mol]       56.762 [kJ/mol]       0.02161951 [Eh]
  Correction E             15.344 [kcal/mol]       64.199 [kJ/mol]       0.02445207 [Eh]
  Total E, Electronic energy at  298.15 [K]                            -76.35889823 [Eh]

  Enthalpy, H_trans = E_trans + k_B * T
    Electronic H            0.000 [kcal/mol]        0.000 [kJ/mol]       0.00000000 [Eh]
    Translational H         1.481 [kcal/mol]        6.197 [kJ/mol]       0.00236046 [Eh]
    Rotational H            0.889 [kcal/mol]        3.718 [kJ/mol]       0.00141628 [Eh]
    Vibrational H          13.566 [kcal/mol]       56.762 [kJ/mol]       0.02161951 [Eh]
  Correction H             15.936 [kcal/mol]       66.678 [kJ/mol]       0.02539625 [Eh]
  Total H, Enthalpy at  298.15 [K]                                     -76.35795404 [Eh]

  Gibbs free energy, G = H - T * S
    Electronic G            0.000 [kcal/mol]        0.000 [kJ/mol]       0.00000000 [Eh]
    Translational G        -8.837 [kcal/mol]      -36.975 [kJ/mol]      -0.01408304 [Eh]
    Rotational G           -2.244 [kcal/mol]       -9.390 [kJ/mol]      -0.00357665 [Eh]
    Vibrational G          13.565 [kcal/mol]       56.756 [kJ/mol]       0.02161716 [Eh]
  Correction G              2.483 [kcal/mol]       10.390 [kJ/mol]       0.00395747 [Eh]
  Total G, Free enthalpy at  298.15 [K]                                -76.37939282 [Eh]

*** Psi4 exiting successfully. Buy a developer a beer!
