                               Psi4 1.3.2 release

  ==> Input File <==

--------------------------------------------------------------------------
set basis  6-311++G**
molecule {
0 1
   O        0.00000        0.00000       -0.06797
   H        0.74903        0.00000        0.53936
   H       -0.74903        0.00000        0.53936
}
energy('MP2')
frequencies('MP2')

--------------------------------------------------------------------------

    Molecular point group: c2v
  Charge       = 0
  Multiplicity = 1
  Basis Set: 6-311++G**
    Blend: 6-311++G**
  Basis Set: (6-311++G** AUX)
    Blend: AUG-CC-PVTZ-JKFIT
  @DF-RHF Final Energy:   -76.05198237242220
    Total Energy =                        -76.0519823724222022
  Basis Set: (6-311++G** AUX)
    Blend: AUG-CC-PVTZ-RI
	 Reference Energy          =     -76.0519823724222022 [Eh]
	 Singles Energy            =      -0.0000000000000000 [Eh]
	 Same-Spin Energy          =      -0.0587917678722833 [Eh]
	 Opposite-Spin Energy      =      -0.1830521649697239 [Eh]
	 Correlation Energy        =      -0.2418439328420072 [Eh]
	 Total Energy              =     -76.2938263052642043 [Eh]
	 SCS Total Energy          =     -76.2912422263433001 [Eh]
    Molecular point group: c2v
  Basis Set: 6-311++G**
    Blend: 6-311++G**
  Basis Set: (6-311++G** AUX)
    Blend: AUG-CC-PVTZ-JKFIT
  @DF-RHF Final Energy:   -76.05198237242226
    Total Energy =                        -76.0519823724222590
  Basis Set: (6-311++G** AUX)
  @DF-RHF Final Energy:   -76.05198237242223
    Total Energy =                        -76.0519823724222306
  @DF-RHF Final Energy:   -76.05183563809214
    Total Energy =                        -76.0518356380921574
  @DF-RHF Final Energy:   -76.05212206905266
    Total Energy =                        -76.0521220690526434
  @DF-RHF Final Energy:   -76.05207904003728
    Total Energy =                        -76.0520790400372846
  @DF-RHF Final Energy:   -76.05187561240258
    Total Energy =                        -76.0518756124025685
    Molecular point group: cs
  Charge       = 0
  Multiplicity = 1
  Basis Set: 6-311++G**
    Blend: 6-311++G**
  Basis Set: (6-311++G** AUX)
    Blend: AUG-CC-PVTZ-JKFIT

    Orbital Energies [Eh]
    ---------------------

    Doubly Occupied:

       1Ap   -20.568999     2Ap    -1.353794     3Ap    -0.711654
       4Ap    -0.588015     1App   -0.510340

  @DF-RHF Final Energy:   -76.05197514408319

   => Energetics <=

    Nuclear Repulsion Energy =              9.1334682877742281
    One-Electron Energy =                -122.9052812048370811
    Two-Electron Energy =                  37.7198377729796661
    Total Energy =                        -76.0519751440831726

  Dipole Moment: [D]
     X:     0.0033      Y:     0.0000      Z:     2.2849     Total:     2.2849

  Basis Set: (6-311++G** AUX)
    Blend: AUG-CC-PVTZ-RI
    Molecular point group: cs

    Geometry (in Angstrom), charge = 0, multiplicity = 1:

       Center              X                  Y                   Z               Mass
    ------------   -----------------  -----------------  -----------------  -----------------
         O           -0.000175859669     0.000000000000    -0.067969259994    15.994914619570
         H            0.750425510279     0.000000000000     0.540492250436     1.007825032230
         H           -0.747634489721     0.000000000000     0.538229229576     1.007825032230

  Basis Set: 6-311++G**
    Blend: 6-311++G**
  Basis Set: (6-311++G** AUX)
    Blend: AUG-CC-PVTZ-JKFIT
  Basis Set: (6-311++G** AUX)
    Blend: AUG-CC-PVTZ-JKFIT
	 Reference Energy          =     -76.0519751440831868 [Eh]
	 Singles Energy            =      -0.0000000000000000 [Eh]
	 Same-Spin Energy          =      -0.0587917097635081 [Eh]
	 Opposite-Spin Energy      =      -0.1830521424507128 [Eh]
	 Correlation Energy        =      -0.2418438522142209 [Eh]
	 Total Energy              =     -76.2938189962974036 [Eh]

	 ================> DF-SCS-MP2 Energies <==================
	-----------------------------------------------------------
	 SCS Same-Spin Scale       =       0.3333333333333333 [-]
	 SCS Opposite-Spin Scale   =       1.2000000000000000 [-]
	 SCS Same-Spin Energy      =      -0.0195972365878360 [Eh]
	 SCS Opposite-Spin Energy  =      -0.2196625709408554 [Eh]
	 SCS Correlation Energy    =      -0.2392598075286914 [Eh]
	 SCS Total Energy          =     -76.2912349516118837 [Eh]
	-----------------------------------------------------------

  -Total Gradient:
     Atom            X                  Y                   Z
    ------   -----------------  -----------------  -----------------
       1       -0.003113851611     0.000000000000    -0.009043681517
       2        0.003788438415     0.000000000000     0.005778115019
       3       -0.000674586804     0.000000000000     0.003265566498

  Vibration                       7                   8                   9
  Freq [cm^-1]                1659.5766           3824.5190           3930.8963
  Irrep                           A1                  A1                  B1
  Reduced mass [u]              1.0807              1.0470              1.0793
  Force const [mDyne/A]         1.7537              9.0230              9.8258

  ==> Thermochemistry Components <==

  Entropy, S
    Electronic S            0.000 [cal/(mol K)]        0.000 [J/(mol K)]       0.00000000 [mEh/K] (multiplicity = 1)
    Translational S        34.608 [cal/(mol K)]      144.801 [J/(mol K)]       0.05515177 [mEh/K] (mol. weight = 18.0106 [u], P = 101325.00 [Pa])
    Rotational S           10.508 [cal/(mol K)]       43.968 [J/(mol K)]       0.01674635 [mEh/K] (symmetry no. = 2)
    Vibrational S           0.006 [cal/(mol K)]        0.025 [J/(mol K)]       0.00000949 [mEh/K]
  Total S                  45.123 [cal/(mol K)]      188.793 [J/(mol K)]       0.07190762 [mEh/K]
  Correction S              0.000 [cal/(mol K)]        0.000 [J/(mol K)]       0.00000000 [mEh/K]

  Constant volume heat capacity, Cv
    Electronic Cv           0.000 [cal/(mol K)]        0.000 [J/(mol K)]       0.00000000 [mEh/K]
    Translational Cv        2.981 [cal/(mol K)]       12.472 [J/(mol K)]       0.00475022 [mEh/K]
    Rotational Cv           2.981 [cal/(mol K)]       12.472 [J/(mol K)]       0.00475022 [mEh/K]
    Vibrational Cv          0.042 [cal/(mol K)]        0.178 [J/(mol K)]       0.00006762 [mEh/K]
  Total Cv                  6.004 [cal/(mol K)]       25.121 [J/(mol K)]       0.00956805 [mEh/K]
  Correction Cv             0.000 [cal/(mol K)]        0.000 [J/(mol K)]       0.00000000 [mEh/K]

  Constant pressure heat capacity, Cp
    Electronic Cp           0.000 [cal/(mol K)]        0.000 [J/(mol K)]       0.00000000 [mEh/K]
    Translational Cp        4.968 [cal/(mol K)]       20.786 [J/(mol K)]       0.00791703 [mEh/K]
    Rotational Cp           2.981 [cal/(mol K)]       12.472 [J/(mol K)]       0.00475022 [mEh/K]
    Vibrational Cp          0.042 [cal/(mol K)]        0.178 [J/(mol K)]       0.00006762 [mEh/K]
  Total Cp                  7.991 [cal/(mol K)]       33.435 [J/(mol K)]       0.01273486 [mEh/K]
  Correction Cp             0.000 [cal/(mol K)]        0.000 [J/(mol K)]       0.00000000 [mEh/K]

  ==> Thermochemistry Energy Analysis <==

  Raw electronic energy, E0
  Total E0, Electronic energy at well bottom at 0 [K]                  -76.29382631 [Eh]

  Zero-point energy, ZPE_vib = Sum_i nu_i / 2
    Electronic ZPE          0.000 [kcal/mol]        0.000 [kJ/mol]       0.00000000 [Eh]
    Translational ZPE       0.000 [kcal/mol]        0.000 [kJ/mol]       0.00000000 [Eh]
    Rotational ZPE          0.000 [kcal/mol]        0.000 [kJ/mol]       0.00000000 [Eh]
    Vibrational ZPE        13.459 [kcal/mol]       56.314 [kJ/mol]       0.02144893 [Eh]        4707.496 [cm^-1]
  Correction ZPE           13.459 [kcal/mol]       56.314 [kJ/mol]       0.02144893 [Eh]        4707.496 [cm^-1]
  Total ZPE, Electronic energy at 0 [K]                                -76.27237738 [Eh]

  Thermal Energy, E (includes ZPE)
    Electronic E            0.000 [kcal/mol]        0.000 [kJ/mol]       0.00000000 [Eh]
    Translational E         0.889 [kcal/mol]        3.718 [kJ/mol]       0.00141628 [Eh]
    Rotational E            0.889 [kcal/mol]        3.718 [kJ/mol]       0.00141628 [Eh]
    Vibrational E          13.461 [kcal/mol]       56.321 [kJ/mol]       0.02145145 [Eh]
  Correction E             15.238 [kcal/mol]       63.758 [kJ/mol]       0.02428400 [Eh]
  Total E, Electronic energy at  298.15 [K]                            -76.26954231 [Eh]

  Enthalpy, H_trans = E_trans + k_B * T
    Electronic H            0.000 [kcal/mol]        0.000 [kJ/mol]       0.00000000 [Eh]
    Translational H         1.481 [kcal/mol]        6.197 [kJ/mol]       0.00236046 [Eh]
    Rotational H            0.889 [kcal/mol]        3.718 [kJ/mol]       0.00141628 [Eh]
    Vibrational H          13.461 [kcal/mol]       56.321 [kJ/mol]       0.02145145 [Eh]
  Correction H             15.831 [kcal/mol]       66.237 [kJ/mol]       0.02522818 [Eh]
  Total H, Enthalpy at  298.15 [K]                                     -76.26859812 [Eh]

  Gibbs free energy, G = H - T * S
    Electronic G            0.000 [kcal/mol]        0.000 [kJ/mol]       0.00000000 [Eh]
    Translational G        -8.837 [kcal/mol]      -36.975 [kJ/mol]      -0.01408304 [Eh]
    Rotational G           -2.244 [kcal/mol]       -9.390 [kJ/mol]      -0.00357665 [Eh]
    Vibrational G          13.459 [kcal/mol]       56.313 [kJ/mol]       0.02144862 [Eh]
  Correction G              2.378 [kcal/mol]        9.948 [kJ/mol]       0.00378893 [Eh]
  Total G, Free enthalpy at  298.15 [K]                                -76.29003738 [Eh]

*** Psi4 exiting successfully. Buy a developer a beer!
