                               Psi4 1.3.2 release

  ==> Input File <==

--------------------------------------------------------------------------
set basis  6-311++G**
molecule {
0 1
   O        0.00000        0.00000       -0.06797
   H        0.74903        0.00000        0.53936
   H       -0.74903        0.00000        0.53936
}
energy('CCSD')
frequencies('CCSD')

--------------------------------------------------------------------------

    Molecular point group: c2v
  Charge       = 0
  Multiplicity = 1
  Basis Set: 6-311++G**
    Blend: 6-311++G**
  @RHF Final Energy:   -76.05198736243514
    Total Energy =                        -76.0519873624351419
      * MP2 total energy                      =  -76.293849812510786
      * CCSD total energy                     =  -76.300337563257585
    Molecular point group: c2v
  Basis Set: 6-311++G**
    Blend: 6-311++G**
  @RHF Final Energy:   -76.05198736243531
    Total Energy =                        -76.0519873624353124
      * MP2 total energy                      =  -76.293849812879756
      * CCSD total energy                     =  -76.300337565054505
  Basis Set: 6-311++G**
    Blend: 6-311++G**
  @RHF Final Energy:   -76.05198736243524
    Total Energy =                        -76.0519873624352414
      * MP2 total energy                      =  -76.293849812879714
      * CCSD total energy                     =  -76.300337564647222
  Basis Set: 6-311++G**
    Blend: 6-311++G**
  @RHF Final Energy:   -76.05184063238256
    Total Energy =                        -76.0518406323825786
      * MP2 total energy                      =  -76.293812662531906
      * CCSD total energy                     =  -76.300293039261291
  Basis Set: 6-311++G**
    Blend: 6-311++G**
  @RHF Final Energy:   -76.05212705473998
    Total Energy =                        -76.0521270547399979
      * MP2 total energy                      =  -76.293880349774810
      * CCSD total energy                     =  -76.300375414469002
  Basis Set: 6-311++G**
    Blend: 6-311++G**
  @RHF Final Energy:   -76.05208402878625
    Total Energy =                        -76.0520840287862541
      * MP2 total energy                      =  -76.293860665533316
      * CCSD total energy                     =  -76.300353416334914
  Basis Set: 6-311++G**
    Blend: 6-311++G**
  @RHF Final Energy:   -76.05188060371226
    Total Energy =                        -76.0518806037122488
      * MP2 total energy                      =  -76.293829129788520
      * CCSD total energy                     =  -76.300311873062711
    Molecular point group: cs
  Charge       = 0
  Multiplicity = 1
  Basis Set: 6-311++G**
    Blend: 6-311++G**

    Orbital Energies [Eh]
    ---------------------

    Doubly Occupied:

       1Ap   -20.568997     2Ap    -1.353792     3Ap    -0.711653
       4Ap    -0.588016     1App   -0.510341

  @RHF Final Energy:   -76.05198013405007

   => Energetics <=

    Nuclear Repulsion Energy =              9.1334682877742281
    One-Electron Energy =                -122.9052990471876967
    Two-Electron Energy =                  37.7198506253633994
    Total Energy =                        -76.0519801340500692

  Dipole Moment: [D]
     X:     0.0033      Y:     0.0000      Z:     2.2849     Total:     2.2849

      * MP2 total energy                      =  -76.293842503560811
      * CCSD total energy                     =  -76.300330344719640
    Molecular point group: cs

    Geometry (in Bohr), charge = 0, multiplicity = 1:

       Center              X                  Y                   Z
    ------------   -----------------  -----------------  -----------------
         O           -0.000332326610     0.000000000000    -0.128443286339
         H            1.418098691984     0.000000000000     1.021382326257
         H           -1.412824427519     0.000000000000     1.017105836614

  -Total gradient:
     Atom            X                  Y                   Z
    ------   -----------------  -----------------  -----------------
       1       -0.003076720691     0.000000000000    -0.011005188066
       2        0.004479346147     0.000000000000     0.006742829441
       3       -0.001402625457     0.000000000000     0.004262358625

  Vibration                       7                   8                   9
  Freq [cm^-1]                1692.7514           3819.8404           3906.7769
  Irrep                           A1                  A1                  B1
  Reduced mass [u]              1.0806              1.0471              1.0793
  Force const [mDyne/A]         1.8244              9.0015              9.7056

  ==> Thermochemistry Components <==

  Entropy, S
    Electronic S            0.000 [cal/(mol K)]        0.000 [J/(mol K)]       0.00000000 [mEh/K] (multiplicity = 1)
    Translational S        34.608 [cal/(mol K)]      144.801 [J/(mol K)]       0.05515177 [mEh/K] (mol. weight = 18.0106 [u], P = 101325.00 [Pa])
    Rotational S           10.508 [cal/(mol K)]       43.968 [J/(mol K)]       0.01674635 [mEh/K] (symmetry no. = 2)
    Vibrational S           0.005 [cal/(mol K)]        0.022 [J/(mol K)]       0.00000823 [mEh/K]
  Total S                  45.122 [cal/(mol K)]      188.790 [J/(mol K)]       0.07190636 [mEh/K]
  Correction S              0.000 [cal/(mol K)]        0.000 [J/(mol K)]       0.00000000 [mEh/K]

  Constant volume heat capacity, Cv
    Electronic Cv           0.000 [cal/(mol K)]        0.000 [J/(mol K)]       0.00000000 [mEh/K]
    Translational Cv        2.981 [cal/(mol K)]       12.472 [J/(mol K)]       0.00475022 [mEh/K]
    Rotational Cv           2.981 [cal/(mol K)]       12.472 [J/(mol K)]       0.00475022 [mEh/K]
    Vibrational Cv          0.038 [cal/(mol K)]        0.157 [J/(mol K)]       0.00005994 [mEh/K]
  Total Cv                  5.999 [cal/(mol K)]       25.101 [J/(mol K)]       0.00956037 [mEh/K]
  Correction Cv             0.000 [cal/(mol K)]        0.000 [J/(mol K)]       0.00000000 [mEh/K]

  Constant pressure heat capacity, Cp
    Electronic Cp           0.000 [cal/(mol K)]        0.000 [J/(mol K)]       0.00000000 [mEh/K]
    Translational Cp        4.968 [cal/(mol K)]       20.786 [J/(mol K)]       0.00791703 [mEh/K]
    Rotational Cp           2.981 [cal/(mol K)]       12.472 [J/(mol K)]       0.00475022 [mEh/K]
    Vibrational Cp          0.038 [cal/(mol K)]        0.157 [J/(mol K)]       0.00005994 [mEh/K]
  Total Cp                  7.986 [cal/(mol K)]       33.415 [J/(mol K)]       0.01272718 [mEh/K]
  Correction Cp             0.000 [cal/(mol K)]        0.000 [J/(mol K)]       0.00000000 [mEh/K]

  ==> Thermochemistry Energy Analysis <==

  Raw electronic energy, E0
  Total E0, Electronic energy at well bottom at 0 [K]                  -76.30033756 [Eh]

  Zero-point energy, ZPE_vib = Sum_i nu_i / 2
    Electronic ZPE          0.000 [kcal/mol]        0.000 [kJ/mol]       0.00000000 [Eh]
    Translational ZPE       0.000 [kcal/mol]        0.000 [kJ/mol]       0.00000000 [Eh]
    Rotational ZPE          0.000 [kcal/mol]        0.000 [kJ/mol]       0.00000000 [Eh]
    Vibrational ZPE        13.466 [kcal/mol]       56.340 [kJ/mol]       0.02145890 [Eh]        4709.684 [cm^-1]
  Correction ZPE           13.466 [kcal/mol]       56.340 [kJ/mol]       0.02145890 [Eh]        4709.684 [cm^-1]
  Total ZPE, Electronic energy at 0 [K]                                -76.27887866 [Eh]

  Thermal Energy, E (includes ZPE)
    Electronic E            0.000 [kcal/mol]        0.000 [kJ/mol]       0.00000000 [Eh]
    Translational E         0.889 [kcal/mol]        3.718 [kJ/mol]       0.00141628 [Eh]
    Rotational E            0.889 [kcal/mol]        3.718 [kJ/mol]       0.00141628 [Eh]
    Vibrational E          13.467 [kcal/mol]       56.346 [kJ/mol]       0.02146109 [Eh]
  Correction E             15.244 [kcal/mol]       63.783 [kJ/mol]       0.02429364 [Eh]
  Total E, Electronic energy at  298.15 [K]                            -76.27604392 [Eh]

  Enthalpy, H_trans = E_trans + k_B * T
    Electronic H            0.000 [kcal/mol]        0.000 [kJ/mol]       0.00000000 [Eh]
    Translational H         1.481 [kcal/mol]        6.197 [kJ/mol]       0.00236046 [Eh]
    Rotational H            0.889 [kcal/mol]        3.718 [kJ/mol]       0.00141628 [Eh]
    Vibrational H          13.467 [kcal/mol]       56.346 [kJ/mol]       0.02146109 [Eh]
  Correction H             15.837 [kcal/mol]       66.262 [kJ/mol]       0.02523783 [Eh]
  Total H, Enthalpy at  298.15 [K]                                     -76.27509974 [Eh]

  Gibbs free energy, G = H - T * S
    Electronic G            0.000 [kcal/mol]        0.000 [kJ/mol]       0.00000000 [Eh]
    Translational G        -8.837 [kcal/mol]      -36.975 [kJ/mol]      -0.01408304 [Eh]
    Rotational G           -2.244 [kcal/mol]       -9.390 [kJ/mol]      -0.00357665 [Eh]
    Vibrational G          13.465 [kcal/mol]       56.340 [kJ/mol]       0.02145863 [Eh]
  Correction G              2.384 [kcal/mol]        9.974 [kJ/mol]       0.00379895 [Eh]
  Total G, Free enthalpy at  298.15 [K]                                -76.29653862 [Eh]

*** Psi4 exiting successfully. Buy a developer a beer!
