                               Psi4 1.3.2 release

  ==> Input File <==

--------------------------------------------------------------------------
set basis  aug-cc-pVTZ
molecule {
0 1
   O        0.00000        0.00000       -0.06797
   H        0.74903        0.00000        0.53936
   H       -0.74903        0.00000        0.53936
}
energy('MP2')
frequencies('MP2')

--------------------------------------------------------------------------

    Molecular point group: c2v
  Charge       = 0
  Multiplicity = 1
  Basis Set: AUG-CC-PVTZ
    Blend: AUG-CC-PVTZ
  Basis Set: (AUG-CC-PVTZ AUX)
    Blend: AUG-CC-PVTZ-JKFIT
  @DF-RHF Final Energy:   -76.05973552147800
    Total Energy =                        -76.0597355214780038
  Basis Set: (AUG-CC-PVTZ AUX)
    Blend: AUG-CC-PVTZ-RI
	 Reference Energy          =     -76.0597355214780038 [Eh]
	 Singles Energy            =      -0.0000000000000000 [Eh]
	 Same-Spin Energy          =      -0.0685160227083512 [Eh]
	 Opposite-Spin Energy      =      -0.2156778009875716 [Eh]
	 Correlation Energy        =      -0.2841938236959227 [Eh]
	 Total Energy              =     -76.3439293451739331 [Eh]
	 SCS Total Energy          =     -76.3413875568992069 [Eh]
    Molecular point group: c2v
  Basis Set: AUG-CC-PVTZ
    Blend: AUG-CC-PVTZ
  Basis Set: (AUG-CC-PVTZ AUX)
    Blend: AUG-CC-PVTZ-JKFIT
  @DF-RHF Final Energy:   -76.05973552147806
    Total Energy =                        -76.0597355214780606
  Basis Set: (AUG-CC-PVTZ AUX)
  @DF-RHF Final Energy:   -76.05973552147810
    Total Energy =                        -76.0597355214781032
  @DF-RHF Final Energy:   -76.05958851073764
    Total Energy =                        -76.0595885107376404
  @DF-RHF Final Energy:   -76.05987557102398
    Total Energy =                        -76.0598755710239800
  @DF-RHF Final Energy:   -76.05983003009996
    Total Energy =                        -76.0598300300999455
  @DF-RHF Final Energy:   -76.05963095249287
    Total Energy =                        -76.0596309524928529
    Molecular point group: cs
  Charge       = 0
  Multiplicity = 1
  Basis Set: AUG-CC-PVTZ
    Blend: AUG-CC-PVTZ
  Basis Set: (AUG-CC-PVTZ AUX)
    Blend: AUG-CC-PVTZ-JKFIT

    Orbital Energies [Eh]
    ---------------------

    Doubly Occupied:

       1Ap   -20.569569     2Ap    -1.351843     3Ap    -0.708936
       4Ap    -0.588658     1App   -0.510538

  @DF-RHF Final Energy:   -76.05972837260649

   => Energetics <=

    Nuclear Repulsion Energy =              9.1334682877742281
    One-Electron Energy =                -122.9273050750387739
    Two-Electron Energy =                  37.7341084146580670
    Total Energy =                        -76.0597283726064859

  Dipole Moment: [D]
     X:     0.0034      Y:     0.0000      Z:     2.0306     Total:     2.0306

  Basis Set: (AUG-CC-PVTZ AUX)
    Blend: AUG-CC-PVTZ-RI
    Molecular point group: cs

    Geometry (in Angstrom), charge = 0, multiplicity = 1:

       Center              X                  Y                   Z               Mass
    ------------   -----------------  -----------------  -----------------  -----------------
         O           -0.000175859669     0.000000000000    -0.067969259994    15.994914619570
         H            0.750425510279     0.000000000000     0.540492250436     1.007825032230
         H           -0.747634489721     0.000000000000     0.538229229576     1.007825032230

  Basis Set: AUG-CC-PVTZ
    Blend: AUG-CC-PVTZ
  Basis Set: (AUG-CC-PVTZ AUX)
    Blend: AUG-CC-PVTZ-JKFIT
  Basis Set: (AUG-CC-PVTZ AUX)
    Blend: AUG-CC-PVTZ-JKFIT
	 Reference Energy          =     -76.0597283726064859 [Eh]
	 Singles Energy            =      -0.0000000000000000 [Eh]
	 Same-Spin Energy          =      -0.0685159655886034 [Eh]
	 Opposite-Spin Energy      =      -0.2156778532687474 [Eh]
	 Correlation Energy        =      -0.2841938188573508 [Eh]
	 Total Energy              =     -76.3439221914638324 [Eh]

	 ================> DF-SCS-MP2 Energies <==================
	-----------------------------------------------------------
	 SCS Same-Spin Scale       =       0.3333333333333333 [-]
	 SCS Opposite-Spin Scale   =       1.2000000000000000 [-]
	 SCS Same-Spin Energy      =      -0.0228386551962011 [Eh]
	 SCS Opposite-Spin Energy  =      -0.2588134239224968 [Eh]
	 SCS Correlation Energy    =      -0.2816520791186980 [Eh]
	 SCS Total Energy          =     -76.3413804517251862 [Eh]
	-----------------------------------------------------------

  -Total Gradient:
     Atom            X                  Y                   Z
    ------   -----------------  -----------------  -----------------
       1       -0.003050272698     0.000000000000    -0.010235535342
       2        0.002755780189     0.000000000000     0.006345505261
       3        0.000294492509     0.000000000000     0.003890030080

  Vibration                       7                   8                   9
  Freq [cm^-1]                1655.7556           3784.7773           3888.8818
  Irrep                           A1                  A1                  B1
  Reduced mass [u]              1.0817              1.0461              1.0793
  Force const [mDyne/A]         1.7472              8.8289              9.6169

  ==> Thermochemistry Components <==

  Entropy, S
    Electronic S            0.000 [cal/(mol K)]        0.000 [J/(mol K)]       0.00000000 [mEh/K] (multiplicity = 1)
    Translational S        34.608 [cal/(mol K)]      144.801 [J/(mol K)]       0.05515177 [mEh/K] (mol. weight = 18.0106 [u], P = 101325.00 [Pa])
    Rotational S           10.508 [cal/(mol K)]       43.968 [J/(mol K)]       0.01674635 [mEh/K] (symmetry no. = 2)
    Vibrational S           0.006 [cal/(mol K)]        0.025 [J/(mol K)]       0.00000965 [mEh/K]
  Total S                  45.123 [cal/(mol K)]      188.794 [J/(mol K)]       0.07190777 [mEh/K]
  Correction S              0.000 [cal/(mol K)]        0.000 [J/(mol K)]       0.00000000 [mEh/K]

  Constant volume heat capacity, Cv
    Electronic Cv           0.000 [cal/(mol K)]        0.000 [J/(mol K)]       0.00000000 [mEh/K]
    Translational Cv        2.981 [cal/(mol K)]       12.472 [J/(mol K)]       0.00475022 [mEh/K]
    Rotational Cv           2.981 [cal/(mol K)]       12.472 [J/(mol K)]       0.00475022 [mEh/K]
    Vibrational Cv          0.043 [cal/(mol K)]        0.180 [J/(mol K)]       0.00006856 [mEh/K]
  Total Cv                  6.005 [cal/(mol K)]       25.123 [J/(mol K)]       0.00956899 [mEh/K]
  Correction Cv             0.000 [cal/(mol K)]        0.000 [J/(mol K)]       0.00000000 [mEh/K]

  Constant pressure heat capacity, Cp
    Electronic Cp           0.000 [cal/(mol K)]        0.000 [J/(mol K)]       0.00000000 [mEh/K]
    Translational Cp        4.968 [cal/(mol K)]       20.786 [J/(mol K)]       0.00791703 [mEh/K]
    Rotational Cp           2.981 [cal/(mol K)]       12.472 [J/(mol K)]       0.00475022 [mEh/K]
    Vibrational Cp          0.043 [cal/(mol K)]        0.180 [J/(mol K)]       0.00006856 [mEh/K]
  Total Cp                  7.992 [cal/(mol K)]       33.438 [J/(mol K)]       0.01273580 [mEh/K]
  Correction Cp             0.000 [cal/(mol K)]        0.000 [J/(mol K)]       0.00000000 [mEh/K]

  ==> Thermochemistry Energy Analysis <==

  Raw electronic energy, E0
  Total E0, Electronic energy at well bottom at 0 [K]                  -76.34392935 [Eh]

  Zero-point energy, ZPE_vib = Sum_i nu_i / 2
    Electronic ZPE          0.000 [kcal/mol]        0.000 [kJ/mol]       0.00000000 [Eh]
    Translational ZPE       0.000 [kcal/mol]        0.000 [kJ/mol]       0.00000000 [Eh]
    Rotational ZPE          0.000 [kcal/mol]        0.000 [kJ/mol]       0.00000000 [Eh]
    Vibrational ZPE        13.337 [kcal/mol]       55.802 [kJ/mol]       0.02125397 [Eh]        4664.707 [cm^-1]
  Correction ZPE           13.337 [kcal/mol]       55.802 [kJ/mol]       0.02125397 [Eh]        4664.707 [cm^-1]
  Total ZPE, Electronic energy at 0 [K]                                -76.32267538 [Eh]

  Thermal Energy, E (includes ZPE)
    Electronic E            0.000 [kcal/mol]        0.000 [kJ/mol]       0.00000000 [Eh]
    Translational E         0.889 [kcal/mol]        3.718 [kJ/mol]       0.00141628 [Eh]
    Rotational E            0.889 [kcal/mol]        3.718 [kJ/mol]       0.00141628 [Eh]
    Vibrational E          13.339 [kcal/mol]       55.809 [kJ/mol]       0.02125653 [Eh]
  Correction E             15.116 [kcal/mol]       63.246 [kJ/mol]       0.02408908 [Eh]
  Total E, Electronic energy at  298.15 [K]                            -76.31984026 [Eh]

  Enthalpy, H_trans = E_trans + k_B * T
    Electronic H            0.000 [kcal/mol]        0.000 [kJ/mol]       0.00000000 [Eh]
    Translational H         1.481 [kcal/mol]        6.197 [kJ/mol]       0.00236046 [Eh]
    Rotational H            0.889 [kcal/mol]        3.718 [kJ/mol]       0.00141628 [Eh]
    Vibrational H          13.339 [kcal/mol]       55.809 [kJ/mol]       0.02125653 [Eh]
  Correction H             15.709 [kcal/mol]       65.725 [kJ/mol]       0.02503327 [Eh]
  Total H, Enthalpy at  298.15 [K]                                     -76.31889608 [Eh]

  Gibbs free energy, G = H - T * S
    Electronic G            0.000 [kcal/mol]        0.000 [kJ/mol]       0.00000000 [Eh]
    Translational G        -8.837 [kcal/mol]      -36.975 [kJ/mol]      -0.01408304 [Eh]
    Rotational G           -2.244 [kcal/mol]       -9.390 [kJ/mol]      -0.00357665 [Eh]
    Vibrational G          13.337 [kcal/mol]       55.801 [kJ/mol]       0.02125365 [Eh]
  Correction G              2.255 [kcal/mol]        9.436 [kJ/mol]       0.00359396 [Eh]
  Total G, Free enthalpy at  298.15 [K]                                -76.34033538 [Eh]

*** Psi4 exiting successfully. Buy a developer a beer!
