                               Psi4 1.3.2 release

  ==> Input File <==

--------------------------------------------------------------------------
set basis  cc-pVDZ
molecule {
0 1
   O        0.00000        0.00000       -0.06797
   H        0.74903        0.00000        0.53936
   H       -0.74903        0.00000        0.53936
}
energy('MP2')
frequencies('MP2')

--------------------------------------------------------------------------

    Molecular point group: c2v
  Charge       = 0
  Multiplicity = 1
  Basis Set: CC-PVDZ
    Blend: CC-PVDZ
  Basis Set: (CC-PVDZ AUX)
    Blend: CC-PVDZ-JKFIT
  @DF-RHF Final Energy:   -76.02623790066122
    Total Energy =                        -76.0262379006612150
  Basis Set: (CC-PVDZ AUX)
    Blend: CC-PVDZ-RI
	 Reference Energy          =     -76.0262379006612150 [Eh]
	 Singles Energy            =      -0.0000000000000000 [Eh]
	 Same-Spin Energy          =      -0.0517291045180141 [Eh]
	 Opposite-Spin Energy      =      -0.1529715836515962 [Eh]
	 Correlation Energy        =      -0.2047006881696103 [Eh]
	 Total Energy              =     -76.2309385888308242 [Eh]
	 SCS Total Energy          =     -76.2270468358824616 [Eh]
    Molecular point group: c2v
  Basis Set: CC-PVDZ
    Blend: CC-PVDZ
  Basis Set: (CC-PVDZ AUX)
    Blend: CC-PVDZ-JKFIT
  @DF-RHF Final Energy:   -76.02623790066107
    Total Energy =                        -76.0262379006610729
  Basis Set: (CC-PVDZ AUX)
  @DF-RHF Final Energy:   -76.02623790066106
    Total Energy =                        -76.0262379006610587
  @DF-RHF Final Energy:   -76.02612666420521
    Total Energy =                        -76.0261266642052078
  @DF-RHF Final Energy:   -76.02634197179556
    Total Energy =                        -76.0263419717955458
  @DF-RHF Final Energy:   -76.02631750986301
    Total Energy =                        -76.0263175098630199
  @DF-RHF Final Energy:   -76.02614802160102
    Total Energy =                        -76.0261480216010170
    Molecular point group: cs
  Charge       = 0
  Multiplicity = 1
  Basis Set: CC-PVDZ
    Blend: CC-PVDZ
  Basis Set: (CC-PVDZ AUX)
    Blend: CC-PVDZ-JKFIT

    Orbital Energies [Eh]
    ---------------------

    Doubly Occupied:

       1Ap   -20.553085     2Ap    -1.335204     3Ap    -0.690599
       4Ap    -0.570565     1App   -0.493583

  @DF-RHF Final Energy:   -76.02623051220115

   => Energetics <=

    Nuclear Repulsion Energy =              9.1334682877742281
    One-Electron Energy =                -123.0333247818909115
    Two-Electron Energy =                  37.8736259819155237
    Total Energy =                        -76.0262305122011526

  Dipole Moment: [D]
     X:     0.0028      Y:     0.0000      Z:     2.1023     Total:     2.1023

  Basis Set: (CC-PVDZ AUX)
    Blend: CC-PVDZ-RI
    Molecular point group: cs

    Geometry (in Angstrom), charge = 0, multiplicity = 1:

       Center              X                  Y                   Z               Mass
    ------------   -----------------  -----------------  -----------------  -----------------
         O           -0.000175859669     0.000000000000    -0.067969259994    15.994914619570
         H            0.750425510279     0.000000000000     0.540492250436     1.007825032230
         H           -0.747634489721     0.000000000000     0.538229229576     1.007825032230

  Basis Set: CC-PVDZ
    Blend: CC-PVDZ
  Basis Set: (CC-PVDZ AUX)
    Blend: CC-PVDZ-JKFIT
  Basis Set: (CC-PVDZ AUX)
    Blend: CC-PVDZ-JKFIT
	 Reference Energy          =     -76.0262305122011526 [Eh]
	 Singles Energy            =      -0.0000000000000000 [Eh]
	 Same-Spin Energy          =      -0.0517290412329923 [Eh]
	 Opposite-Spin Energy      =      -0.1529715610226063 [Eh]
	 Correlation Energy        =      -0.2047006022555986 [Eh]
	 Total Energy              =     -76.2309311144567516 [Eh]

	 ================> DF-SCS-MP2 Energies <==================
	-----------------------------------------------------------
	 SCS Same-Spin Scale       =       0.3333333333333333 [-]
	 SCS Opposite-Spin Scale   =       1.2000000000000000 [-]
	 SCS Same-Spin Energy      =      -0.0172430137443308 [Eh]
	 SCS Opposite-Spin Energy  =      -0.1835658732271275 [Eh]
	 SCS Correlation Energy    =      -0.2008088869714583 [Eh]
	 SCS Total Energy          =     -76.2270393991726110 [Eh]
	-----------------------------------------------------------

  -Total Gradient:
     Atom            X                  Y                   Z
    ------   -----------------  -----------------  -----------------
       1       -0.003178545363     0.000000000000     0.000038695231
       2        0.001565353814     0.000000000000     0.001269273986
       3        0.001613191549     0.000000000000    -0.001307969217

  Vibration                       7                   8                   9
  Freq [cm^-1]                1679.3981           3855.2875           3975.0741
  Irrep                           A1                  A1                  B1
  Reduced mass [u]              1.0810              1.0467              1.0793
  Force const [mDyne/A]         1.7964              9.1662             10.0479

  ==> Thermochemistry Components <==

  Entropy, S
    Electronic S            0.000 [cal/(mol K)]        0.000 [J/(mol K)]       0.00000000 [mEh/K] (multiplicity = 1)
    Translational S        34.608 [cal/(mol K)]      144.801 [J/(mol K)]       0.05515177 [mEh/K] (mol. weight = 18.0106 [u], P = 101325.00 [Pa])
    Rotational S           10.508 [cal/(mol K)]       43.968 [J/(mol K)]       0.01674635 [mEh/K] (symmetry no. = 2)
    Vibrational S           0.005 [cal/(mol K)]        0.023 [J/(mol K)]       0.00000872 [mEh/K]
  Total S                  45.122 [cal/(mol K)]      188.791 [J/(mol K)]       0.07190684 [mEh/K]
  Correction S              0.000 [cal/(mol K)]        0.000 [J/(mol K)]       0.00000000 [mEh/K]

  Constant volume heat capacity, Cv
    Electronic Cv           0.000 [cal/(mol K)]        0.000 [J/(mol K)]       0.00000000 [mEh/K]
    Translational Cv        2.981 [cal/(mol K)]       12.472 [J/(mol K)]       0.00475022 [mEh/K]
    Rotational Cv           2.981 [cal/(mol K)]       12.472 [J/(mol K)]       0.00475022 [mEh/K]
    Vibrational Cv          0.039 [cal/(mol K)]        0.165 [J/(mol K)]       0.00006292 [mEh/K]
  Total Cv                  6.001 [cal/(mol K)]       25.109 [J/(mol K)]       0.00956335 [mEh/K]
  Correction Cv             0.000 [cal/(mol K)]        0.000 [J/(mol K)]       0.00000000 [mEh/K]

  Constant pressure heat capacity, Cp
    Electronic Cp           0.000 [cal/(mol K)]        0.000 [J/(mol K)]       0.00000000 [mEh/K]
    Translational Cp        4.968 [cal/(mol K)]       20.786 [J/(mol K)]       0.00791703 [mEh/K]
    Rotational Cp           2.981 [cal/(mol K)]       12.472 [J/(mol K)]       0.00475022 [mEh/K]
    Vibrational Cp          0.039 [cal/(mol K)]        0.165 [J/(mol K)]       0.00006292 [mEh/K]
  Total Cp                  7.988 [cal/(mol K)]       33.423 [J/(mol K)]       0.01273016 [mEh/K]
  Correction Cp             0.000 [cal/(mol K)]        0.000 [J/(mol K)]       0.00000000 [mEh/K]

  ==> Thermochemistry Energy Analysis <==

  Raw electronic energy, E0
  Total E0, Electronic energy at well bottom at 0 [K]                  -76.23093859 [Eh]

  Zero-point energy, ZPE_vib = Sum_i nu_i / 2
    Electronic ZPE          0.000 [kcal/mol]        0.000 [kJ/mol]       0.00000000 [Eh]
    Translational ZPE       0.000 [kcal/mol]        0.000 [kJ/mol]       0.00000000 [Eh]
    Rotational ZPE          0.000 [kcal/mol]        0.000 [kJ/mol]       0.00000000 [Eh]
    Vibrational ZPE        13.595 [kcal/mol]       56.881 [kJ/mol]       0.02166483 [Eh]        4754.880 [cm^-1]
  Correction ZPE           13.595 [kcal/mol]       56.881 [kJ/mol]       0.02166483 [Eh]        4754.880 [cm^-1]
  Total ZPE, Electronic energy at 0 [K]                                -76.20927376 [Eh]

  Thermal Energy, E (includes ZPE)
    Electronic E            0.000 [kcal/mol]        0.000 [kJ/mol]       0.00000000 [Eh]
    Translational E         0.889 [kcal/mol]        3.718 [kJ/mol]       0.00141628 [Eh]
    Rotational E            0.889 [kcal/mol]        3.718 [kJ/mol]       0.00141628 [Eh]
    Vibrational E          13.596 [kcal/mol]       56.887 [kJ/mol]       0.02166714 [Eh]
  Correction E             15.374 [kcal/mol]       64.324 [kJ/mol]       0.02449969 [Eh]
  Total E, Electronic energy at  298.15 [K]                            -76.20643889 [Eh]

  Enthalpy, H_trans = E_trans + k_B * T
    Electronic H            0.000 [kcal/mol]        0.000 [kJ/mol]       0.00000000 [Eh]
    Translational H         1.481 [kcal/mol]        6.197 [kJ/mol]       0.00236046 [Eh]
    Rotational H            0.889 [kcal/mol]        3.718 [kJ/mol]       0.00141628 [Eh]
    Vibrational H          13.596 [kcal/mol]       56.887 [kJ/mol]       0.02166714 [Eh]
  Correction H             15.966 [kcal/mol]       66.803 [kJ/mol]       0.02544388 [Eh]
  Total H, Enthalpy at  298.15 [K]                                     -76.20549471 [Eh]

  Gibbs free energy, G = H - T * S
    Electronic G            0.000 [kcal/mol]        0.000 [kJ/mol]       0.00000000 [Eh]
    Translational G        -8.837 [kcal/mol]      -36.975 [kJ/mol]      -0.01408304 [Eh]
    Rotational G           -2.244 [kcal/mol]       -9.390 [kJ/mol]      -0.00357665 [Eh]
    Vibrational G          13.595 [kcal/mol]       56.880 [kJ/mol]       0.02166454 [Eh]
  Correction G              2.513 [kcal/mol]       10.515 [kJ/mol]       0.00400485 [Eh]
  Total G, Free enthalpy at  298.15 [K]                                -76.22693374 [Eh]

*** Psi4 exiting successfully. Buy a developer a beer!
