                               Psi4 1.3.2 release

  ==> Input File <==

--------------------------------------------------------------------------
set basis  6-311++G**
molecule {
0 1
   O        0.00000        0.00000       -0.06797
   H        0.74903        0.00000        0.53936
   H       -0.74903        0.00000        0.53936
}
energy('scf')
frequencies('scf')

--------------------------------------------------------------------------

    Molecular point group: c2v
  Charge       = 0
  Multiplicity = 1
  Basis Set: 6-311++G**
    Blend: 6-311++G**
  Basis Set: (6-311++G** AUX)
    Blend: AUG-CC-PVTZ-JKFIT
  @DF-RHF Final Energy:   -76.05198237237958
    Total Energy =                        -76.0519823723795838
    Molecular point group: c2v
  Basis Set: 6-311++G**
    Blend: 6-311++G**
  Basis Set: (6-311++G** AUX)
    Blend: AUG-CC-PVTZ-JKFIT
  @DF-RHF Final Energy:   -76.05198237242220
    Total Energy =                        -76.0519823724222022
  Basis Set: 6-311++G**
    Blend: 6-311++G**
  Basis Set: (6-311++G** AUX)
    Blend: AUG-CC-PVTZ-JKFIT

  -Total Gradient:
     Atom            X                  Y                   Z
    ------   -----------------  -----------------  -----------------
       1        0.000000000000     0.000000000000    -0.038323801572
       2        0.014442610142     0.000000000000     0.019161900786
       3       -0.014442610142    -0.000000000000     0.019161900786

  Charge       = 0
  Multiplicity = 1
  Basis Set: 6-311++G**
    Blend: 6-311++G**
  Basis Set: (6-311++G** AUX)
    Blend: AUG-CC-PVTZ-JKFIT

    Orbital Energies [Eh]
    ---------------------

    Doubly Occupied:

       1A1   -20.569000     2A1    -1.353790     1B1    -0.711653
       3A1    -0.588017     1B2    -0.510340

  @DF-RHF Final Energy:   -76.05198237242220

   => Energetics <=

    Nuclear Repulsion Energy =              9.1334334609951409
    One-Electron Energy =                -122.9052327356856864
    Two-Electron Energy =                  37.7198169022683487
    Total Energy =                        -76.0519823724222022

  Dipole Moment: [D]
     X:     0.0000      Y:     0.0000      Z:     2.2849     Total:     2.2849

    Molecular point group: c2v
  Basis Set: 6-311++G**
    Blend: 6-311++G**
  Basis Set: (6-311++G** AUX)
    Blend: AUG-CC-PVTZ-JKFIT
  Basis Set: (6-311++G** AUX)
    Blend: AUG-CC-PVTZ-JKFIT
    Molecular point group: c2v

    Geometry (in Angstrom), charge = 0, multiplicity = 1:

       Center              X                  Y                   Z               Mass
    ------------   -----------------  -----------------  -----------------  -----------------
         O            0.000000000000     0.000000000000    -0.067969259994    15.994914619570
         H            0.749030000000     0.000000000000     0.539360740006     1.007825032230
         H           -0.749030000000    -0.000000000000     0.539360740006     1.007825032230

  Basis Set: 6-311++G**
    Blend: 6-311++G**
  Basis Set: (6-311++G** AUX)
    Blend: AUG-CC-PVTZ-JKFIT

  Vibration                       4                   5                   6
  Freq [cm^-1]                 517.2322            591.4609            702.0884
  Irrep                           A2                  B1                  B2
  Reduced mass [u]              1.0078              1.0475              1.1259
  Force const [mDyne/A]         0.1589              0.2159              0.3270

  IR activ [km/mol]             0.0000             121.8679            334.1334

  Vibration                       7                   8                   9
  Freq [cm^-1]                1822.6626           3845.0181           3909.1056
  Irrep                           A1                  A1                  B1
  Reduced mass [u]              1.0804              1.0473              1.0801
  Force const [mDyne/A]         2.1148              9.1223              9.7248

  IR activ [km/mol]            72.3707             24.0937             66.0066

  ==> Thermochemistry Components <==

  Entropy, S
    Electronic S            0.000 [cal/(mol K)]        0.000 [J/(mol K)]       0.00000000 [mEh/K] (multiplicity = 1)
    Translational S        34.608 [cal/(mol K)]      144.801 [J/(mol K)]       0.05515177 [mEh/K] (mol. weight = 18.0106 [u], P = 101325.00 [Pa])
    Rotational S           10.508 [cal/(mol K)]       43.968 [J/(mol K)]       0.01674635 [mEh/K] (symmetry no. = 2)
    Vibrational S           1.388 [cal/(mol K)]        5.806 [J/(mol K)]       0.00221121 [mEh/K]
  Total S                  46.504 [cal/(mol K)]      194.574 [J/(mol K)]       0.07410933 [mEh/K]
  Correction S              0.000 [cal/(mol K)]        0.000 [J/(mol K)]       0.00000000 [mEh/K]

  Constant volume heat capacity, Cv
    Electronic Cv           0.000 [cal/(mol K)]        0.000 [J/(mol K)]       0.00000000 [mEh/K]
    Translational Cv        2.981 [cal/(mol K)]       12.472 [J/(mol K)]       0.00475022 [mEh/K]
    Rotational Cv           2.981 [cal/(mol K)]       12.472 [J/(mol K)]       0.00475022 [mEh/K]
    Vibrational Cv          3.110 [cal/(mol K)]       13.014 [J/(mol K)]       0.00495660 [mEh/K]
  Total Cv                  9.072 [cal/(mol K)]       37.957 [J/(mol K)]       0.01445703 [mEh/K]
  Correction Cv             0.000 [cal/(mol K)]        0.000 [J/(mol K)]       0.00000000 [mEh/K]

  Constant pressure heat capacity, Cp
    Electronic Cp           0.000 [cal/(mol K)]        0.000 [J/(mol K)]       0.00000000 [mEh/K]
    Translational Cp        4.968 [cal/(mol K)]       20.786 [J/(mol K)]       0.00791703 [mEh/K]
    Rotational Cp           2.981 [cal/(mol K)]       12.472 [J/(mol K)]       0.00475022 [mEh/K]
    Vibrational Cp          3.110 [cal/(mol K)]       13.014 [J/(mol K)]       0.00495660 [mEh/K]
  Total Cp                 11.059 [cal/(mol K)]       46.271 [J/(mol K)]       0.01762384 [mEh/K]
  Correction Cp             0.000 [cal/(mol K)]        0.000 [J/(mol K)]       0.00000000 [mEh/K]

  ==> Thermochemistry Energy Analysis <==

  Raw electronic energy, E0
  Total E0, Electronic energy at well bottom at 0 [K]                  -76.05198237 [Eh]

  Zero-point energy, ZPE_vib = Sum_i nu_i / 2
    Electronic ZPE          0.000 [kcal/mol]        0.000 [kJ/mol]       0.00000000 [Eh]
    Translational ZPE       0.000 [kcal/mol]        0.000 [kJ/mol]       0.00000000 [Eh]
    Rotational ZPE          0.000 [kcal/mol]        0.000 [kJ/mol]       0.00000000 [Eh]
    Vibrational ZPE        16.279 [kcal/mol]       68.113 [kJ/mol]       0.02594279 [Eh]        5693.784 [cm^-1]
  Correction ZPE           16.279 [kcal/mol]       68.113 [kJ/mol]       0.02594279 [Eh]        5693.784 [cm^-1]
  Total ZPE, Electronic energy at 0 [K]                                -76.02603958 [Eh]

  Thermal Energy, E (includes ZPE)
    Electronic E            0.000 [kcal/mol]        0.000 [kJ/mol]       0.00000000 [Eh]
    Translational E         0.889 [kcal/mol]        3.718 [kJ/mol]       0.00141628 [Eh]
    Rotational E            0.889 [kcal/mol]        3.718 [kJ/mol]       0.00141628 [Eh]
    Vibrational E          16.586 [kcal/mol]       69.398 [kJ/mol]       0.02643225 [Eh]
  Correction E             18.364 [kcal/mol]       76.835 [kJ/mol]       0.02926481 [Eh]
  Total E, Electronic energy at  298.15 [K]                            -76.02271757 [Eh]

  Enthalpy, H_trans = E_trans + k_B * T
    Electronic H            0.000 [kcal/mol]        0.000 [kJ/mol]       0.00000000 [Eh]
    Translational H         1.481 [kcal/mol]        6.197 [kJ/mol]       0.00236046 [Eh]
    Rotational H            0.889 [kcal/mol]        3.718 [kJ/mol]       0.00141628 [Eh]
    Vibrational H          16.586 [kcal/mol]       69.398 [kJ/mol]       0.02643225 [Eh]
  Correction H             18.956 [kcal/mol]       79.314 [kJ/mol]       0.03020899 [Eh]
  Total H, Enthalpy at  298.15 [K]                                     -76.02177338 [Eh]

  Gibbs free energy, G = H - T * S
    Electronic G            0.000 [kcal/mol]        0.000 [kJ/mol]       0.00000000 [Eh]
    Translational G        -8.837 [kcal/mol]      -36.975 [kJ/mol]      -0.01408304 [Eh]
    Rotational G           -2.244 [kcal/mol]       -9.390 [kJ/mol]      -0.00357665 [Eh]
    Vibrational G          16.173 [kcal/mol]       67.667 [kJ/mol]       0.02577298 [Eh]
  Correction G              5.091 [kcal/mol]       21.301 [kJ/mol]       0.00811329 [Eh]
  Total G, Free enthalpy at  298.15 [K]                                -76.04386908 [Eh]

*** Psi4 exiting successfully. Buy a developer a beer!
