                               Psi4 1.3.2 release

  ==> Input File <==

--------------------------------------------------------------------------
set basis  6-31+G*
molecule {
0 1
   O        0.00000        0.00000       -0.06797
   H        0.74903        0.00000        0.53936
   H       -0.74903        0.00000        0.53936
}
energy('scf')
frequencies('scf')

--------------------------------------------------------------------------

    Molecular point group: c2v
  Charge       = 0
  Multiplicity = 1
  Basis Set: 6-31+G*
    Blend: 6-31+G*
  Basis Set: (6-31+G* AUX)
    Blend: HEAVY-AUG-CC-PVDZ-JKFIT
  @DF-RHF Final Energy:   -76.01666678121626
    Total Energy =                        -76.0166667812162586
    Molecular point group: c2v
  Basis Set: 6-31+G*
    Blend: 6-31+G*
  Basis Set: (6-31+G* AUX)
    Blend: HEAVY-AUG-CC-PVDZ-JKFIT
  @DF-RHF Final Energy:   -76.01666678123958
    Total Energy =                        -76.0166667812395787
  Basis Set: 6-31+G*
    Blend: 6-31+G*
  Basis Set: (6-31+G* AUX)
    Blend: HEAVY-AUG-CC-PVDZ-JKFIT

  -Total Gradient:
     Atom            X                  Y                   Z
    ------   -----------------  -----------------  -----------------
       1        0.000000000000     0.000000000000    -0.031714978135
       2        0.007701212276     0.000000000000     0.015857489067
       3       -0.007701212276    -0.000000000000     0.015857489067

  Charge       = 0
  Multiplicity = 1
  Basis Set: 6-31+G*
    Blend: 6-31+G*
  Basis Set: (6-31+G* AUX)
    Blend: HEAVY-AUG-CC-PVDZ-JKFIT

    Orbital Energies [Eh]
    ---------------------

    Doubly Occupied:

       1A1   -20.583430     2A1    -1.355680     1B1    -0.713528
       3A1    -0.588774     1B2    -0.509535

  @DF-RHF Final Energy:   -76.01666678123958

   => Energetics <=

    Nuclear Repulsion Energy =              9.1334334609951409
    One-Electron Energy =                -122.7983044476909100
    Two-Electron Energy =                  37.6482042054561958
    Total Energy =                        -76.0166667812395787

  Dipole Moment: [D]
     X:     0.0000      Y:     0.0000      Z:     2.3854     Total:     2.3854

    Molecular point group: c2v
  Basis Set: 6-31+G*
    Blend: 6-31+G*
  Basis Set: (6-31+G* AUX)
    Blend: HEAVY-AUG-CC-PVDZ-JKFIT
  Basis Set: (6-31+G* AUX)
    Blend: HEAVY-AUG-CC-PVDZ-JKFIT
    Molecular point group: c2v

    Geometry (in Angstrom), charge = 0, multiplicity = 1:

       Center              X                  Y                   Z               Mass
    ------------   -----------------  -----------------  -----------------  -----------------
         O            0.000000000000     0.000000000000    -0.067969259994    15.994914619570
         H            0.749030000000     0.000000000000     0.539360740006     1.007825032230
         H           -0.749030000000    -0.000000000000     0.539360740006     1.007825032230

  Basis Set: 6-31+G*
    Blend: 6-31+G*
  Basis Set: (6-31+G* AUX)
    Blend: HEAVY-AUG-CC-PVDZ-JKFIT

  Vibration                       4                   5                   6
  Freq [cm^-1]                 377.6959            489.2532            638.6895
  Irrep                           A2                  B1                  B2
  Reduced mass [u]              1.0078              1.0474              1.1259
  Force const [mDyne/A]         0.0847              0.1477              0.2706

  IR activ [km/mol]             0.0000             132.7307            364.1739

  Vibration                       7                   8                   9
  Freq [cm^-1]                1876.9663           3859.3644           3939.4989
  Irrep                           A1                  A1                  B1
  Reduced mass [u]              1.0804              1.0473              1.0803
  Force const [mDyne/A]         2.2425              9.1911              9.8778

  IR activ [km/mol]            106.0689            20.7922             62.0019

  ==> Thermochemistry Components <==

  Entropy, S
    Electronic S            0.000 [cal/(mol K)]        0.000 [J/(mol K)]       0.00000000 [mEh/K] (multiplicity = 1)
    Translational S        34.608 [cal/(mol K)]      144.801 [J/(mol K)]       0.05515177 [mEh/K] (mol. weight = 18.0106 [u], P = 101325.00 [Pa])
    Rotational S           10.508 [cal/(mol K)]       43.968 [J/(mol K)]       0.01674635 [mEh/K] (symmetry no. = 2)
    Vibrational S           2.124 [cal/(mol K)]        8.887 [J/(mol K)]       0.00338472 [mEh/K]
  Total S                  47.241 [cal/(mol K)]      197.655 [J/(mol K)]       0.07528284 [mEh/K]
  Correction S              0.000 [cal/(mol K)]        0.000 [J/(mol K)]       0.00000000 [mEh/K]

  Constant volume heat capacity, Cv
    Electronic Cv           0.000 [cal/(mol K)]        0.000 [J/(mol K)]       0.00000000 [mEh/K]
    Translational Cv        2.981 [cal/(mol K)]       12.472 [J/(mol K)]       0.00475022 [mEh/K]
    Rotational Cv           2.981 [cal/(mol K)]       12.472 [J/(mol K)]       0.00475022 [mEh/K]
    Vibrational Cv          3.762 [cal/(mol K)]       15.738 [J/(mol K)]       0.00599438 [mEh/K]
  Total Cv                  9.723 [cal/(mol K)]       40.682 [J/(mol K)]       0.01549481 [mEh/K]
  Correction Cv             0.000 [cal/(mol K)]        0.000 [J/(mol K)]       0.00000000 [mEh/K]

  Constant pressure heat capacity, Cp
    Electronic Cp           0.000 [cal/(mol K)]        0.000 [J/(mol K)]       0.00000000 [mEh/K]
    Translational Cp        4.968 [cal/(mol K)]       20.786 [J/(mol K)]       0.00791703 [mEh/K]
    Rotational Cp           2.981 [cal/(mol K)]       12.472 [J/(mol K)]       0.00475022 [mEh/K]
    Vibrational Cp          3.762 [cal/(mol K)]       15.738 [J/(mol K)]       0.00599438 [mEh/K]
  Total Cp                 11.710 [cal/(mol K)]       48.996 [J/(mol K)]       0.01866162 [mEh/K]
  Correction Cp             0.000 [cal/(mol K)]        0.000 [J/(mol K)]       0.00000000 [mEh/K]

  ==> Thermochemistry Energy Analysis <==

  Raw electronic energy, E0
  Total E0, Electronic energy at well bottom at 0 [K]                  -76.01666678 [Eh]

  Zero-point energy, ZPE_vib = Sum_i nu_i / 2
    Electronic ZPE          0.000 [kcal/mol]        0.000 [kJ/mol]       0.00000000 [Eh]
    Translational ZPE       0.000 [kcal/mol]        0.000 [kJ/mol]       0.00000000 [Eh]
    Rotational ZPE          0.000 [kcal/mol]        0.000 [kJ/mol]       0.00000000 [Eh]
    Vibrational ZPE        15.985 [kcal/mol]       66.880 [kJ/mol]       0.02547326 [Eh]        5590.734 [cm^-1]
  Correction ZPE           15.985 [kcal/mol]       66.880 [kJ/mol]       0.02547326 [Eh]        5590.734 [cm^-1]
  Total ZPE, Electronic energy at 0 [K]                                -75.99119352 [Eh]

  Thermal Energy, E (includes ZPE)
    Electronic E            0.000 [kcal/mol]        0.000 [kJ/mol]       0.00000000 [Eh]
    Translational E         0.889 [kcal/mol]        3.718 [kJ/mol]       0.00141628 [Eh]
    Rotational E            0.889 [kcal/mol]        3.718 [kJ/mol]       0.00141628 [Eh]
    Vibrational E          16.427 [kcal/mol]       68.730 [kJ/mol]       0.02617801 [Eh]
  Correction E             18.204 [kcal/mol]       76.167 [kJ/mol]       0.02901056 [Eh]
  Total E, Electronic energy at  298.15 [K]                            -75.98765622 [Eh]

  Enthalpy, H_trans = E_trans + k_B * T
    Electronic H            0.000 [kcal/mol]        0.000 [kJ/mol]       0.00000000 [Eh]
    Translational H         1.481 [kcal/mol]        6.197 [kJ/mol]       0.00236046 [Eh]
    Rotational H            0.889 [kcal/mol]        3.718 [kJ/mol]       0.00141628 [Eh]
    Vibrational H          16.427 [kcal/mol]       68.730 [kJ/mol]       0.02617801 [Eh]
  Correction H             18.797 [kcal/mol]       78.646 [kJ/mol]       0.02995475 [Eh]
  Total H, Enthalpy at  298.15 [K]                                     -75.98671204 [Eh]

  Gibbs free energy, G = H - T * S
    Electronic G            0.000 [kcal/mol]        0.000 [kJ/mol]       0.00000000 [Eh]
    Translational G        -8.837 [kcal/mol]      -36.975 [kJ/mol]      -0.01408304 [Eh]
    Rotational G           -2.244 [kcal/mol]       -9.390 [kJ/mol]      -0.00357665 [Eh]
    Vibrational G          15.794 [kcal/mol]       66.081 [kJ/mol]       0.02516885 [Eh]
  Correction G              4.712 [kcal/mol]       19.715 [kJ/mol]       0.00750917 [Eh]
  Total G, Free enthalpy at  298.15 [K]                                -76.00915761 [Eh]

*** Psi4 exiting successfully. Buy a developer a beer!
